 *******************************************************************************
 **                                                                           **
 **                              MOPAC v23.2.2                                **
 **                                                                           **
 *******************************************************************************
 **          Digital Object Identifier (DOI): 10.5281/zenodo.6511958          **
 **    Visit the DOI location for information on how to cite this program.    **
 *******************************************************************************

                              PM7 CALCULATION RESULTS

 *******************************************************************************
 *  CALCULATION DONE: (MAX THREADS = 24)             Wed Mar 18 11:58:33 2026  *
 *  PM7        - The PM7 Hamiltonian to be used
 *
 *
 *
 *                 CHARGE ON SYSTEM = 0
 *
 *
 *
 *  T=         - A TIME OF 172800.0 SECONDS REQUESTED
 *  DUMP=N     - RESTART FILE WRITTEN EVERY 7200.0 SECONDS REQUESTED
 *******************************************************************************
PM7 CHARGE=0


   ATOM   CHEMICAL          X               Y               Z
  NUMBER   SYMBOL      (ANGSTROMS)     (ANGSTROMS)     (ANGSTROMS)

     1       N         -1.03470000  *  -1.26700000  *  -0.76380000  *
     2       N         -1.99550000  *   0.78440000  *   0.01740000  *
     3       N          0.30790000  *  -2.99410000  *  -1.51830000  *
     4       N         -8.35190000  *  -0.61000000  *  -0.61890000  *
     5       N          8.11430000  *   0.84990000  *   1.89330000  *
     6       C          1.24920000  *  -0.83430000  *  -0.97430000  *
     7       C          0.20660000  *  -1.72350000  *  -1.10090000  *
     8       C         -0.97460000  *  -0.01070000  *  -0.38340000  *
     9       C         -3.34170000  *   0.45270000  *   0.25890000  *
    10       C          2.64480000  *  -1.03940000  *  -1.29590000  *
    11       C          3.70610000  *  -0.26450000  *  -0.59970000  *
    12       C         -3.84700000  *  -0.85400000  *   0.22380000  *
    13       C         -5.20390000  *  -1.11610000  *   0.44450000  *
    14       C         -6.07950000  *  -0.05840000  *   0.68570000  *
    15       C         -5.60860000  *   1.25210000  *   0.72930000  *
    16       C         -4.24930000  *   1.49910000  *   0.51080000  *
    17       C          3.70240000  *  -0.11500000  *   0.79460000  *
    18       C          4.72550000  *   0.60130000  *   1.42000000  *
    19       C          5.75850000  *   1.14610000  *   0.64930000  *
    20       C          5.77530000  *   0.99260000  *  -0.74000000  *
    21       C          4.75180000  *   0.27530000  *  -1.36260000  *
    22       O          3.02830000  *  -1.85460000  *  -2.13650000  *
    23       O         -7.90930000  *  -1.66120000  *   1.64630000  *
    24       O         -8.43540000  *   0.80810000  *   1.43140000  *
    25       O          7.73240000  *   2.85460000  *   0.45240000  *
    26       O          6.49920000  *   2.64880000  *   2.65610000  *
    27       S          0.61740000  *   0.66890000  *  -0.44750000  *
    28       S         -7.79690000  *  -0.39860000  *   0.95730000  *
    29       S          7.04450000  *   2.07070000  *   1.45170000  *
    30       H         -1.75760000  *   1.74210000  *   0.24220000  *
    31       H          1.11720000  *  -3.26630000  *  -2.07580000  *
    32       H         -0.54910000  *  -3.45050000  *  -1.81350000  *
    33       H         -7.60150000  *  -0.66080000  *  -1.30710000  *
    34       H         -9.02020000  *   0.13130000  *  -0.83530000  *
    35       H          7.74400000  *  -0.08990000  *   1.75800000  *
    36       H          8.99800000  *   0.98670000  *   1.39900000  *
    37       H         -3.19200000  *  -1.70210000  *   0.04170000  *
    38       H         -5.56100000  *  -2.14420000  *   0.43070000  *
    39       H         -6.28110000  *   2.08290000  *   0.93110000  *
    40       H         -3.90220000  *   2.53000000  *   0.53950000  *
    41       H          2.91690000  *  -0.55820000  *   1.40350000  *
    42       H          4.71290000  *   0.73030000  *   2.50150000  *
    43       H          6.57310000  *   1.42450000  *  -1.34160000  *
    44       H          4.76660000  *   0.14110000  *  -2.44330000  *



          CARTESIAN COORDINATES 

    NO.       ATOM           X           Y           Z

     1         N         -1.0347     -1.2670     -0.7638
     2         N         -1.9955      0.7844      0.0174
     3         N          0.3079     -2.9941     -1.5183
     4         N         -8.3519     -0.6100     -0.6189
     5         N          8.1143      0.8499      1.8933
     6         C          1.2492     -0.8343     -0.9743
     7         C          0.2066     -1.7235     -1.1009
     8         C         -0.9746     -0.0107     -0.3834
     9         C         -3.3417      0.4527      0.2589
    10         C          2.6448     -1.0394     -1.2959
    11         C          3.7061     -0.2645     -0.5997
    12         C         -3.8470     -0.8540      0.2238
    13         C         -5.2039     -1.1161      0.4445
    14         C         -6.0795     -0.0584      0.6857
    15         C         -5.6086      1.2521      0.7293
    16         C         -4.2493      1.4991      0.5108
    17         C          3.7024     -0.1150      0.7946
    18         C          4.7255      0.6013      1.4200
    19         C          5.7585      1.1461      0.6493
    20         C          5.7753      0.9926     -0.7400
    21         C          4.7518      0.2753     -1.3626
    22         O          3.0283     -1.8546     -2.1365
    23         O         -7.9093     -1.6612      1.6463
    24         O         -8.4354      0.8081      1.4314
    25         O          7.7324      2.8546      0.4524
    26         O          6.4992      2.6488      2.6561
    27         S          0.6174      0.6689     -0.4475
    28         S         -7.7969     -0.3986      0.9573
    29         S          7.0445      2.0707      1.4517
    30         H         -1.7576      1.7421      0.2422
    31         H          1.1172     -3.2663     -2.0758
    32         H         -0.5491     -3.4505     -1.8135
    33         H         -7.6015     -0.6608     -1.3071
    34         H         -9.0202      0.1313     -0.8353
    35         H          7.7440     -0.0899      1.7580
    36         H          8.9980      0.9867      1.3990
    37         H         -3.1920     -1.7021      0.0417
    38         H         -5.5610     -2.1442      0.4307
    39         H         -6.2811      2.0829      0.9311
    40         H         -3.9022      2.5300      0.5395
    41         H          2.9169     -0.5582      1.4035
    42         H          4.7129      0.7303      2.5015
    43         H          6.5731      1.4245     -1.3416
    44         H          4.7666      0.1411     -2.4433

 General Reference for PM7:
 "Optimization of Parameters for Semiempirical Methods VI: More Modifications to the 
 NDDO Approximations and Re-optimization of Parameters", J. J. P. Stewart, J. Mol. Mod., 1:32, 19 (2013)
 https://link.springer.com/article/10.1007/s00894-012-1667-x

           Empirical Formula: C16 H15 N5 O5 S3  =    44 atoms



      MOLECULAR POINT GROUP   :   C1  


      RHF CALCULATION, NO. OF DOUBLY OCCUPIED LEVELS = 76


          Geometry optimization using L-BFGS
 CYCLE:     1 TIME:   1.098 TIME LEFT:  2.00D  GRAD.:   167.463 HEAT: -85.81699
 CYCLE:     2 TIME:   0.023 TIME LEFT:  2.00D  GRAD.:   164.466 HEAT: -86.09485
 CYCLE:     3 TIME:   0.027 TIME LEFT:  2.00D  GRAD.:    48.415 HEAT: -95.93450
 CYCLE:     4 TIME:   0.031 TIME LEFT:  2.00D  GRAD.:   164.651 HEAT: -86.09846
 CYCLE:     5 TIME:   0.027 TIME LEFT:  2.00D  GRAD.:    48.440 HEAT: -95.93594
 CYCLE:     6 TIME:   0.023 TIME LEFT:  2.00D  GRAD.:    44.121 HEAT: -97.34523
 CYCLE:     7 TIME:   0.027 TIME LEFT:  2.00D  GRAD.:    42.267 HEAT: -99.14150
 CYCLE:     8 TIME:   0.027 TIME LEFT:  2.00D  GRAD.:    61.851 HEAT: -100.1425
 CYCLE:     9 TIME:   0.023 TIME LEFT:  2.00D  GRAD.:    29.700 HEAT: -100.9905
 CYCLE:    10 TIME:   0.027 TIME LEFT:  2.00D  GRAD.:    19.153 HEAT: -101.5043
 CYCLE:    11 TIME:   0.027 TIME LEFT:  2.00D  GRAD.:    18.254 HEAT: -101.7701
 CYCLE:    12 TIME:   0.027 TIME LEFT:  2.00D  GRAD.:    38.222 HEAT: -102.1097
 CYCLE:    13 TIME:   0.027 TIME LEFT:  2.00D  GRAD.:    15.307 HEAT: -102.4835
 CYCLE:    14 TIME:   0.023 TIME LEFT:  2.00D  GRAD.:    13.513 HEAT: -102.6254
 CYCLE:    15 TIME:   0.027 TIME LEFT:  2.00D  GRAD.:    16.158 HEAT: -102.9389
 CYCLE:    16 TIME:   0.027 TIME LEFT:  2.00D  GRAD.:    41.780 HEAT: -102.9636
 CYCLE:    17 TIME:   0.023 TIME LEFT:  2.00D  GRAD.:    14.409 HEAT: -103.2703
 CYCLE:    18 TIME:   0.023 TIME LEFT:  2.00D  GRAD.:     9.006 HEAT: -103.3868
 CYCLE:    19 TIME:   0.023 TIME LEFT:  2.00D  GRAD.:    11.828 HEAT: -103.5060
 CYCLE:    20 TIME:   0.027 TIME LEFT:  2.00D  GRAD.:    12.115 HEAT: -103.6483
 CYCLE:    21 TIME:   0.031 TIME LEFT:  2.00D  GRAD.:    20.881 HEAT: -103.7591
 CYCLE:    22 TIME:   0.023 TIME LEFT:  2.00D  GRAD.:    10.118 HEAT: -103.8945
 CYCLE:    23 TIME:   0.023 TIME LEFT:  2.00D  GRAD.:     9.935 HEAT: -103.9545
 CYCLE:    24 TIME:   0.031 TIME LEFT:  2.00D  GRAD.:    14.023 HEAT: -104.1112
 CYCLE:    25 TIME:   0.027 TIME LEFT:  2.00D  GRAD.:    37.467 HEAT: -104.2298
 CYCLE:    26 TIME:   0.023 TIME LEFT:  2.00D  GRAD.:    18.936 HEAT: -104.4662
 CYCLE:    27 TIME:   0.027 TIME LEFT:  2.00D  GRAD.:    17.260 HEAT: -104.7134
 CYCLE:    28 TIME:   0.027 TIME LEFT:  2.00D  GRAD.:    27.868 HEAT: -104.9125
 CYCLE:    29 TIME:   0.027 TIME LEFT:  2.00D  GRAD.:    42.722 HEAT: -105.2595
 CYCLE:    30 TIME:   0.031 TIME LEFT:  2.00D  GRAD.:    40.016 HEAT: -105.7449
 CYCLE:    31 TIME:   0.027 TIME LEFT:  2.00D  GRAD.:    29.472 HEAT: -106.5077
 CYCLE:    32 TIME:   0.027 TIME LEFT:  2.00D  GRAD.:    19.238 HEAT: -106.9239
 CYCLE:    33 TIME:   0.027 TIME LEFT:  2.00D  GRAD.:    15.687 HEAT: -107.2323
 CYCLE:    34 TIME:   0.023 TIME LEFT:  2.00D  GRAD.:    27.535 HEAT: -107.5463
 CYCLE:    35 TIME:   0.027 TIME LEFT:  2.00D  GRAD.:    17.444 HEAT: -107.8011
 CYCLE:    36 TIME:   0.023 TIME LEFT:  2.00D  GRAD.:    12.897 HEAT: -107.9572
 CYCLE:    37 TIME:   0.027 TIME LEFT:  2.00D  GRAD.:    13.493 HEAT: -108.1467
 CYCLE:    38 TIME:   0.027 TIME LEFT:  2.00D  GRAD.:    28.380 HEAT: -108.2913
 CYCLE:    39 TIME:   0.023 TIME LEFT:  2.00D  GRAD.:    12.802 HEAT: -108.5101
 CYCLE:    40 TIME:   0.027 TIME LEFT:  2.00D  GRAD.:     9.628 HEAT: -108.6277
 CYCLE:    41 TIME:   0.023 TIME LEFT:  2.00D  GRAD.:    11.295 HEAT: -108.7238
 CYCLE:    42 TIME:   0.027 TIME LEFT:  2.00D  GRAD.:    18.848 HEAT: -108.8143
 CYCLE:    43 TIME:   0.023 TIME LEFT:  2.00D  GRAD.:     9.797 HEAT: -108.9320
 CYCLE:    44 TIME:   0.023 TIME LEFT:  2.00D  GRAD.:     8.634 HEAT: -109.0022
 CYCLE:    45 TIME:   0.023 TIME LEFT:  2.00D  GRAD.:    10.782 HEAT: -109.0789
 CYCLE:    46 TIME:   0.027 TIME LEFT:  2.00D  GRAD.:    17.195 HEAT: -109.1822
 CYCLE:    47 TIME:   0.027 TIME LEFT:  2.00D  GRAD.:    13.326 HEAT: -109.3177
 CYCLE:    48 TIME:   0.023 TIME LEFT:  2.00D  GRAD.:    13.877 HEAT: -109.5617
 CYCLE:    49 TIME:   0.027 TIME LEFT:  2.00D  GRAD.:    18.747 HEAT: -109.7413
 CYCLE:    50 TIME:   0.027 TIME LEFT:  2.00D  GRAD.:    17.760 HEAT: -109.9916
 CYCLE:    51 TIME:   0.023 TIME LEFT:  2.00D  GRAD.:    26.431 HEAT: -110.1398
 CYCLE:    52 TIME:   0.027 TIME LEFT:  2.00D  GRAD.:    11.187 HEAT: -110.3323
 CYCLE:    53 TIME:   0.023 TIME LEFT:  2.00D  GRAD.:    10.683 HEAT: -110.4167
 CYCLE:    54 TIME:   0.023 TIME LEFT:  2.00D  GRAD.:    18.179 HEAT: -110.5609
 CYCLE:    55 TIME:   0.027 TIME LEFT:  2.00D  GRAD.:    22.812 HEAT: -110.7613
 CYCLE:    56 TIME:   0.027 TIME LEFT:  2.00D  GRAD.:    14.836 HEAT: -110.9819
 CYCLE:    57 TIME:   0.023 TIME LEFT:  2.00D  GRAD.:    11.722 HEAT: -111.0973
 CYCLE:    58 TIME:   0.027 TIME LEFT:  2.00D  GRAD.:    18.815 HEAT: -111.1913
 CYCLE:    59 TIME:   0.023 TIME LEFT:  2.00D  GRAD.:    11.224 HEAT: -111.3144
 CYCLE:    60 TIME:   0.027 TIME LEFT:  2.00D  GRAD.:     9.319 HEAT: -111.3972
 CYCLE:    61 TIME:   0.023 TIME LEFT:  2.00D  GRAD.:    11.438 HEAT: -111.4702
 CYCLE:    62 TIME:   0.027 TIME LEFT:  2.00D  GRAD.:    12.378 HEAT: -111.5792
 CYCLE:    63 TIME:   0.027 TIME LEFT:  2.00D  GRAD.:    10.601 HEAT: -111.6759
 CYCLE:    64 TIME:   0.023 TIME LEFT:  2.00D  GRAD.:     8.623 HEAT: -111.7534
 CYCLE:    65 TIME:   0.027 TIME LEFT:  2.00D  GRAD.:    10.854 HEAT: -111.8285
 CYCLE:    66 TIME:   0.023 TIME LEFT:  2.00D  GRAD.:     8.784 HEAT: -111.9100
 CYCLE:    67 TIME:   0.023 TIME LEFT:  2.00D  GRAD.:     7.535 HEAT: -111.9706
 CYCLE:    68 TIME:   0.027 TIME LEFT:  2.00D  GRAD.:     8.357 HEAT: -112.0261
 CYCLE:    69 TIME:   0.023 TIME LEFT:  2.00D  GRAD.:     7.090 HEAT: -112.0860
 CYCLE:    70 TIME:   0.023 TIME LEFT:  2.00D  GRAD.:     6.958 HEAT: -112.1415
 CYCLE:    71 TIME:   0.027 TIME LEFT:  2.00D  GRAD.:     9.479 HEAT: -112.1709
 CYCLE:    72 TIME:   0.023 TIME LEFT:  2.00D  GRAD.:     5.295 HEAT: -112.2017
 CYCLE:    73 TIME:   0.023 TIME LEFT:  2.00D  GRAD.:     5.190 HEAT: -112.2236
 CYCLE:    74 TIME:   0.023 TIME LEFT:  2.00D  GRAD.:     4.712 HEAT: -112.2404
 CYCLE:    75 TIME:   0.023 TIME LEFT:  2.00D  GRAD.:     5.119 HEAT: -112.2667
 CYCLE:    76 TIME:   0.027 TIME LEFT:  2.00D  GRAD.:     5.812 HEAT: -112.2938
 CYCLE:    77 TIME:   0.023 TIME LEFT:  2.00D  GRAD.:     4.398 HEAT: -112.3124
 CYCLE:    78 TIME:   0.023 TIME LEFT:  2.00D  GRAD.:     3.661 HEAT: -112.3257
 CYCLE:    79 TIME:   0.023 TIME LEFT:  2.00D  GRAD.:     4.345 HEAT: -112.3389
 CYCLE:    80 TIME:   0.027 TIME LEFT:  2.00D  GRAD.:     5.052 HEAT: -112.3502
 CYCLE:    81 TIME:   0.023 TIME LEFT:  2.00D  GRAD.:     3.038 HEAT: -112.3592
 CYCLE:    82 TIME:   0.023 TIME LEFT:  2.00D  GRAD.:     2.769 HEAT: -112.3660
 CYCLE:    83 TIME:   0.023 TIME LEFT:  2.00D  GRAD.:     3.249 HEAT: -112.3745
 CYCLE:    84 TIME:   0.023 TIME LEFT:  2.00D  GRAD.:     5.537 HEAT: -112.3823
 CYCLE:    85 TIME:   0.027 TIME LEFT:  2.00D  GRAD.:     2.453 HEAT: -112.3915
 CYCLE:    86 TIME:   0.023 TIME LEFT:  2.00D  GRAD.:     2.193 HEAT: -112.3968
 CYCLE:    87 TIME:   0.023 TIME LEFT:  2.00D  GRAD.:     2.596 HEAT: -112.4021
 CYCLE:    88 TIME:   0.027 TIME LEFT:  2.00D  GRAD.:     6.584 HEAT: -112.4086
 CYCLE:    89 TIME:   0.023 TIME LEFT:  2.00D  GRAD.:     3.453 HEAT: -112.4190
 CYCLE:    90 TIME:   0.023 TIME LEFT:  2.00D  GRAD.:     2.747 HEAT: -112.4288
 CYCLE:    91 TIME:   0.023 TIME LEFT:  2.00D  GRAD.:     3.503 HEAT: -112.4377
 CYCLE:    92 TIME:   0.023 TIME LEFT:  2.00D  GRAD.:     5.171 HEAT: -112.4499
 CYCLE:    93 TIME:   0.027 TIME LEFT:  2.00D  GRAD.:     3.883 HEAT: -112.4627
 CYCLE:    94 TIME:   0.023 TIME LEFT:  2.00D  GRAD.:     3.700 HEAT: -112.4755
 CYCLE:    95 TIME:   0.027 TIME LEFT:  2.00D  GRAD.:     8.420 HEAT: -112.4816
 CYCLE:    96 TIME:   0.023 TIME LEFT:  2.00D  GRAD.:     3.615 HEAT: -112.4987
 CYCLE:    97 TIME:   0.023 TIME LEFT:  2.00D  GRAD.:     2.631 HEAT: -112.5034
 CYCLE:    98 TIME:   0.027 TIME LEFT:  2.00D  GRAD.:     2.937 HEAT: -112.5157
 CYCLE:    99 TIME:   0.027 TIME LEFT:  2.00D  GRAD.:     5.912 HEAT: -112.5271
 CYCLE:   100 TIME:   0.023 TIME LEFT:  2.00D  GRAD.:     3.776 HEAT: -112.5375
 CYCLE:   101 TIME:   0.023 TIME LEFT:  2.00D  GRAD.:     2.666 HEAT: -112.5448
 CYCLE:   102 TIME:   0.023 TIME LEFT:  2.00D  GRAD.:     2.698 HEAT: -112.5529
 CYCLE:   103 TIME:   0.027 TIME LEFT:  2.00D  GRAD.:     4.074 HEAT: -112.5603
 CYCLE:   104 TIME:   0.023 TIME LEFT:  2.00D  GRAD.:     3.282 HEAT: -112.5692
 CYCLE:   105 TIME:   0.023 TIME LEFT:  2.00D  GRAD.:     2.892 HEAT: -112.5784
 CYCLE:   106 TIME:   0.023 TIME LEFT:  2.00D  GRAD.:     4.402 HEAT: -112.5895
 CYCLE:   107 TIME:   0.027 TIME LEFT:  2.00D  GRAD.:     4.307 HEAT: -112.5984
 CYCLE:   108 TIME:   0.023 TIME LEFT:  2.00D  GRAD.:     2.924 HEAT: -112.6051
 CYCLE:   109 TIME:   0.023 TIME LEFT:  2.00D  GRAD.:     2.941 HEAT: -112.6136
 CYCLE:   110 TIME:   0.023 TIME LEFT:  2.00D  GRAD.:     2.540 HEAT: -112.6177
 CYCLE:   111 TIME:   0.027 TIME LEFT:  2.00D  GRAD.:     2.757 HEAT: -112.6204
 CYCLE:   112 TIME:   0.027 TIME LEFT:  2.00D  GRAD.:     4.341 HEAT: -112.6237
 CYCLE:   113 TIME:   0.023 TIME LEFT:  2.00D  GRAD.:     2.150 HEAT: -112.6302
 CYCLE:   114 TIME:   0.023 TIME LEFT:  2.00D  GRAD.:     2.045 HEAT: -112.6328
 CYCLE:   115 TIME:   0.023 TIME LEFT:  2.00D  GRAD.:     2.186 HEAT: -112.6360
 CYCLE:   116 TIME:   0.023 TIME LEFT:  2.00D  GRAD.:     3.517 HEAT: -112.6392
 CYCLE:   117 TIME:   0.027 TIME LEFT:  2.00D  GRAD.:     2.195 HEAT: -112.6431
 CYCLE:   118 TIME:   0.023 TIME LEFT:  2.00D  GRAD.:     1.892 HEAT: -112.6454
 CYCLE:   119 TIME:   0.027 TIME LEFT:  2.00D  GRAD.:     5.312 HEAT: -112.6498
 CYCLE:   120 TIME:   0.027 TIME LEFT:  2.00D  GRAD.:     2.508 HEAT: -112.6570
 CYCLE:   121 TIME:   0.023 TIME LEFT:  2.00D  GRAD.:     1.536 HEAT: -112.6593
 CYCLE:   122 TIME:   0.023 TIME LEFT:  2.00D  GRAD.:     1.522 HEAT: -112.6616
 CYCLE:   123 TIME:   0.027 TIME LEFT:  2.00D  GRAD.:     2.404 HEAT: -112.6639
 CYCLE:   124 TIME:   0.027 TIME LEFT:  2.00D  GRAD.:     8.155 HEAT: -112.6589
 CYCLE:   125 TIME:   0.023 TIME LEFT:  2.00D  GRAD.:     1.862 HEAT: -112.6703
 CYCLE:   126 TIME:   0.027 TIME LEFT:  2.00D  GRAD.:     1.221 HEAT: -112.6720
 CYCLE:   127 TIME:   0.027 TIME LEFT:  2.00D  GRAD.:     1.887 HEAT: -112.6740
 CYCLE:   128 TIME:   0.027 TIME LEFT:  2.00D  GRAD.:     2.810 HEAT: -112.6771
 CYCLE:   129 TIME:   0.023 TIME LEFT:  2.00D  GRAD.:     1.576 HEAT: -112.6811
 CYCLE:   130 TIME:   0.027 TIME LEFT:  2.00D  GRAD.:     2.038 HEAT: -112.6850
 CYCLE:   131 TIME:   0.027 TIME LEFT:  2.00D  GRAD.:     3.502 HEAT: -112.6868
 CYCLE:   132 TIME:   0.023 TIME LEFT:  2.00D  GRAD.:     2.085 HEAT: -112.6898
 CYCLE:   133 TIME:   0.027 TIME LEFT:  2.00D  GRAD.:     1.916 HEAT: -112.6916
 CYCLE:   134 TIME:   0.023 TIME LEFT:  2.00D  GRAD.:     1.674 HEAT: -112.6956
 CYCLE:   135 TIME:   0.031 TIME LEFT:  2.00D  GRAD.:     4.325 HEAT: -112.6970
 CYCLE:   136 TIME:   0.023 TIME LEFT:  2.00D  GRAD.:     1.373 HEAT: -112.7015
 CYCLE:   137 TIME:   0.023 TIME LEFT:  2.00D  GRAD.:     1.347 HEAT: -112.7031
 CYCLE:   138 TIME:   0.031 TIME LEFT:  2.00D  GRAD.:     2.303 HEAT: -112.7064
 CYCLE:   139 TIME:   0.023 TIME LEFT:  2.00D  GRAD.:     5.674 HEAT: -112.7063
 CYCLE:   140 TIME:   0.023 TIME LEFT:  2.00D  GRAD.:     1.652 HEAT: -112.7123
 CYCLE:   141 TIME:   0.027 TIME LEFT:  2.00D  GRAD.:     1.124 HEAT: -112.7139
 CYCLE:   142 TIME:   0.023 TIME LEFT:  2.00D  GRAD.:     1.381 HEAT: -112.7158
 CYCLE:   143 TIME:   0.027 TIME LEFT:  2.00D  GRAD.:     1.491 HEAT: -112.7189
 CYCLE:   144 TIME:   0.027 TIME LEFT:  2.00D  GRAD.:     5.476 HEAT: -112.7172
 CYCLE:   145 TIME:   0.023 TIME LEFT:  2.00D  GRAD.:     1.187 HEAT: -112.7231
 CYCLE:   146 TIME:   0.027 TIME LEFT:  2.00D  GRAD.:     0.930 HEAT: -112.7239

 -------------------------------------------------------------------------------
 PM7 CHARGE=0




     HERBERTS TEST WAS SATISFIED IN BFGS                      
     SCF FIELD WAS ACHIEVED                                   


                              PM7 CALCULATION
                                                       MOPAC v23.2.2 Linux
                                                       Wed Mar 18 11:58:37 2026




          FINAL HEAT OF FORMATION =       -112.72391 KCAL/MOL =    -471.63683 KJ/MOL


          COSMO AREA              =        412.96 SQUARE ANGSTROMS
          COSMO VOLUME            =        460.64 CUBIC ANGSTROMS

          GRADIENT NORM           =          0.93004          =       0.14021 PER ATOM
          IONIZATION POTENTIAL    =          8.856976 EV
          HOMO LUMO ENERGIES (EV) =         -8.857 -1.435
          NO. OF FILLED LEVELS    =         76
          MOLECULAR WEIGHT        =        453.5050         POINT GROUP:  C1  

          MOLECULAR DIMENSIONS (Angstroms)

            Atom       Atom       Distance
            H    36    H    34    18.43595
            H    31    O    26     6.81927
            O    23    H    43     5.09611


          SCF CALCULATIONS        =        147

          WALL-CLOCK TIME         =      4.820 SECONDS
          COMPUTATION TIME        =          1 MINUTE AND 54.454 SECONDS




   ATOM   CHEMICAL          X               Y               Z
  NUMBER   SYMBOL      (ANGSTROMS)     (ANGSTROMS)     (ANGSTROMS)

     1       N         -1.10449162  *  -1.07451252  *  -0.85606222  *
     2       N         -1.99428358  *   0.86643753  *   0.24031091  *
     3       N          0.19920522  *  -2.77018122  *  -1.86572189  *
     4       N         -8.45680997  *  -0.37920855  *  -0.80450209  *
     5       N          8.36316729  *   0.90117795  *   1.58393313  *
     6       C          1.27151794  *  -0.83999276  *  -0.80072322  *
     7       C          0.15459828  *  -1.60073876  *  -1.19948079  *
     8       C         -0.97677316  *   0.09289932  *  -0.23289974  *
     9       C         -3.36293405  *   0.50286447  *   0.29300404  *
    10       C          2.62072094  *  -1.25561239  *  -1.01308343  *
    11       C          3.72187667  *  -0.42665541  *  -0.44593121  *
    12       C         -3.81215323  *  -0.81908118  *   0.20306370  *
    13       C         -5.16953097  *  -1.09179319  *   0.34584045  *
    14       C         -6.07917542  *  -0.05949840  *   0.56912912  *
    15       C         -5.63144573  *   1.26000402  *   0.64413212  *
    16       C         -4.27996926  *   1.55018548  *   0.50707036  *
    17       C          3.87905268  *  -0.33559870  *   0.93583813  *
    18       C          4.91917006  *   0.43010839  *   1.45932608  *
    19       C          5.79716439  *   1.08705001  *   0.59885655  *
    20       C          5.63973462  *   0.98956751  *  -0.78234531  *
    21       C          4.60029088  *   0.22435709  *  -1.30919178  *
    22       O          2.88967514  *  -2.27130273  *  -1.63504408  *
    23       O         -7.90396806  *  -1.79123426  *   1.23270212  *
    24       O         -8.39124051  *   0.67933557  *   1.50226556  *
    25       O          7.61318295  *   2.91996614  *   0.22558816  *
    26       O          6.69947892  *   2.55335007  *   2.55486938  *
    27       S          0.74922808  *   0.62810152  *  -0.02801085  *
    28       S         -7.77831697  *  -0.42084001  *   0.79513944  *
    29       S          7.10369871  *   2.05316164  *   1.26190561  *
    30       H         -1.76887504  *   1.81015551  *   0.56173373  *
    31       H          1.10749028  *  -3.15001855  *  -2.11963294  *
    32       H         -0.63457708  *  -3.26047068  *  -2.12106440  *
    33       H         -8.78922468  *  -1.25426152  *  -1.17522778  *
    34       H         -9.11923926  *   0.35558080  *  -0.99151797  *
    35       H          8.60022053  *   0.75205008  *   2.55092239  *
    36       H          9.19593772  *   0.97165295  *   1.02320046  *
    37       H         -3.11443711  *  -1.64117682  *   0.02634185  *
    38       H         -5.50421081  *  -2.13668283  *   0.29451773  *
    39       H         -6.33602396  *   2.08312597  *   0.82354117  *
    40       H         -3.94103882  *   2.58119790  *   0.56296703  *
    41       H          3.19977138  *  -0.86380873  *   1.60389361  *
    42       H          5.02396729  *   0.51237120  *   2.54637312  *
    43       H          6.31937523  *   1.51128577  *  -1.46664828  *
    44       H          4.47998719  *   0.12688463  *  -2.38783139  *

                             CARTESIAN COORDINATES

   1    N       -1.104491624    -1.074512517    -0.856062220
   2    N       -1.994283581     0.866437527     0.240310915
   3    N        0.199205220    -2.770181223    -1.865721890
   4    N       -8.456809975    -0.379208551    -0.804502085
   5    N        8.363167292     0.901177949     1.583933127
   6    C        1.271517942    -0.839992755    -0.800723220
   7    C        0.154598284    -1.600738763    -1.199480786
   8    C       -0.976773160     0.092899315    -0.232899736
   9    C       -3.362934047     0.502864466     0.293004043
  10    C        2.620720944    -1.255612392    -1.013083435
  11    C        3.721876675    -0.426655413    -0.445931213
  12    C       -3.812153225    -0.819081178     0.203063704
  13    C       -5.169530967    -1.091793189     0.345840450
  14    C       -6.079175415    -0.059498403     0.569129117
  15    C       -5.631445733     1.260004017     0.644132124
  16    C       -4.279969258     1.550185477     0.507070356
  17    C        3.879052684    -0.335598698     0.935838130
  18    C        4.919170060     0.430108394     1.459326079
  19    C        5.797164392     1.087050012     0.598856545
  20    C        5.639734621     0.989567509    -0.782345314
  21    C        4.600290883     0.224357085    -1.309191783
  22    O        2.889675144    -2.271302726    -1.635044080
  23    O       -7.903968064    -1.791234256     1.232702119
  24    O       -8.391240510     0.679335568     1.502265561
  25    O        7.613182946     2.919966144     0.225588161
  26    O        6.699478922     2.553350071     2.554869377
  27    S        0.749228081     0.628101524    -0.028010845
  28    S       -7.778316966    -0.420840013     0.795139436
  29    S        7.103698711     2.053161638     1.261905607
  30    H       -1.768875035     1.810155511     0.561733729
  31    H        1.107490276    -3.150018552    -2.119632943
  32    H       -0.634577080    -3.260470684    -2.121064398
  33    H       -8.789224677    -1.254261521    -1.175227777
  34    H       -9.119239258     0.355580804    -0.991517970
  35    H        8.600220528     0.752050085     2.550922394
  36    H        9.195937719     0.971652953     1.023200457
  37    H       -3.114437111    -1.641176817     0.026341854
  38    H       -5.504210813    -2.136682828     0.294517725
  39    H       -6.336023960     2.083125969     0.823541167
  40    H       -3.941038819     2.581197903     0.562967028
  41    H        3.199771380    -0.863808734     1.603893609
  42    H        5.023967295     0.512371195     2.546373122
  43    H        6.319375226     1.511285768    -1.466648277
  44    H        4.479987186     0.126884625    -2.387831385


           Empirical Formula: C16 H15 N5 O5 S3  =    44 atoms



      MOLECULAR POINT GROUP   :   C1  


                  EIGENVALUES  
 -38.65823 -38.08535 -36.06064 -36.03553 -35.95704 -31.46844 -31.30551 -30.74659
 -29.41634 -29.35213 -28.49052 -27.97460 -27.87689 -26.83418 -26.74870 -26.46582
 -26.32126 -24.88041 -23.62791 -22.66540 -22.37609 -21.72299 -21.49998 -20.56038
 -19.89146 -19.72914 -19.68420 -18.79969 -18.05182 -17.63826 -17.15022 -17.08659
 -17.05272 -16.70914 -16.51439 -16.37856 -16.11087 -15.93016 -15.83711 -15.69327
 -15.63695 -15.50861 -15.19185 -15.08274 -14.88583 -14.78417 -14.50061 -14.13080
 -14.10500 -13.94678 -13.88079 -13.76329 -13.56369 -13.25354 -12.81125 -12.64374
 -12.52454 -12.44431 -12.36299 -11.82097 -11.74378 -11.70664 -11.62693 -11.59350
 -11.50580 -11.42090 -11.12995 -10.85915 -10.69689 -10.66649 -10.64728 -10.51542
 -10.41648 -10.34765  -9.83076  -8.85698  -1.43542  -1.08543  -0.81088  -0.57575
  -0.53089  -0.51860  -0.28079   0.09676   0.10516   0.27898   0.51450   0.68268
   0.70296   0.76936   1.08492   1.33710   1.56740   1.61523   1.80316   2.01794
   2.60347   2.61746   2.67858   2.75264   2.85093   2.92938   2.94532   3.14995
   3.27098   3.48076   3.57491   3.80620   3.91631   3.95101   4.07634   4.24488
   4.26473   4.30436   4.38657   4.46541   4.49574   4.56346   4.59098   4.66149
   4.68967   4.70265   4.73132   4.79573   4.95361   4.99531   5.06940   5.16303
   5.24418   5.31272   5.33544   5.36087   5.40925   5.45008   5.50207   5.59556
   5.72046   5.80697   5.84094   5.96381   6.03774   6.32405   6.36359   6.41654
   6.62650   6.70889


              NET ATOMIC CHARGES AND DIPOLE CONTRIBUTIONS

  ATOM NO.   TYPE          CHARGE      No. of ELECS.   s-Pop       p-Pop       d-Pop       
    1          N          -0.574501        5.5745     1.76913     3.80537
    2          N          -0.465758        5.4658     1.52014     3.94562
    3          N          -0.524523        5.5245     1.50963     4.01489
    4          N          -0.942078        5.9421     1.65699     4.28508
    5          N          -0.941847        5.9418     1.65557     4.28627
    6          C          -0.605783        4.6058     1.05758     3.54821
    7          C           0.508199        3.4918     1.05305     2.43875
    8          C           0.343179        3.6568     1.10970     2.54712
    9          C           0.248599        3.7514     1.06291     2.68849
   10          C           0.522675        3.4773     1.08401     2.39331
   11          C          -0.071281        4.0713     1.08470     2.98658
   12          C          -0.237737        4.2377     1.08344     3.15429
   13          C          -0.012446        4.0124     1.09178     2.92067
   14          C          -0.417870        4.4179     1.10710     3.31077
   15          C          -0.012969        4.0130     1.08968     2.92329
   16          C          -0.279077        4.2791     1.07641     3.20267
   17          C          -0.155465        4.1555     1.08258     3.07289
   18          C          -0.067820        4.0678     1.08820     2.97962
   19          C          -0.359287        4.3593     1.11184     3.24745
   20          C          -0.073008        4.0730     1.08983     2.98317
   21          C          -0.141715        4.1417     1.08347     3.05824
   22          O          -0.525730        6.5257     1.88178     4.64395
   23          O          -0.914517        6.9145     1.89281     5.02171
   24          O          -0.917723        6.9177     1.89274     5.02499
   25          O          -0.914077        6.9141     1.89265     5.02143
   26          O          -0.916437        6.9164     1.89264     5.02380
   27          S           0.174714        5.8253     1.89190     3.80360     0.12979
   28          S           2.357454        3.6425     1.16985     1.96920     0.50350
   29          S           2.345339        3.6547     1.17337     1.97529     0.50601
   30          H           0.332232        0.6678     0.66777
   31          H           0.352791        0.6472     0.64721
   32          H           0.321519        0.6785     0.67848
   33          H           0.293895        0.7061     0.70611
   34          H           0.293764        0.7062     0.70624
   35          H           0.294608        0.7054     0.70539
   36          H           0.295138        0.7049     0.70486
   37          H           0.199245        0.8008     0.80076
   38          H           0.176342        0.8237     0.82366
   39          H           0.175519        0.8245     0.82448
   40          H           0.160827        0.8392     0.83917
   41          H           0.162857        0.8371     0.83714
   42          H           0.170661        0.8293     0.82934
   43          H           0.176982        0.8230     0.82302
   44          H           0.165113        0.8349     0.83489
 DIPOLE           X         Y         Z       TOTAL
 POINT-CHG.    -1.269    -0.744    -2.492     2.894
 HYBRID         0.461    -0.503    -0.363     0.773
 SUM           -0.808    -1.247    -2.855     3.219


          ATOMIC ORBITAL ELECTRON POPULATIONS

     Atom    s        px        py        pz      x^2-y^2     xz        z^2       yz        xy
    1  N   1.76913   1.28309   1.19609   1.32619
    2  N   1.52014   1.11681   1.23681   1.59200
    3  N   1.50963   1.22924   1.25369   1.53197
    4  N   1.65699   1.58594   1.26250   1.43664
    5  N   1.65557   1.34087   1.66498   1.28043
    6  C   1.05758   1.04130   1.10068   1.40623
    7  C   1.05305   0.83967   0.80875   0.79033
    8  C   1.10970   0.87013   0.84714   0.82985
    9  C   1.06291   0.78323   0.98183   0.92343
   10  C   1.08401   0.88195   0.79344   0.71792
   11  C   1.08470   1.00199   0.98564   0.99895
   12  C   1.08344   1.04507   1.03542   1.07381
   13  C   1.09178   0.97078   1.06565   0.88423
   14  C   1.10710   1.11053   1.02759   1.17265
   15  C   1.08968   1.00916   1.02303   0.89110
   16  C   1.07641   1.00765   1.06685   1.12817
   17  C   1.08258   1.03767   1.02554   1.00968
   18  C   1.08820   0.95631   0.94603   1.07728
   19  C   1.11184   1.10219   1.11129   1.03397
   20  C   1.08983   1.00696   0.97383   1.00239
   21  C   1.08347   0.98078   0.99529   1.08218
   22  O   1.88178   1.87238   1.34140   1.43016
   23  O   1.89281   1.83745   1.40242   1.78184
   24  O   1.89274   1.76246   1.54356   1.71896
   25  O   1.89265   1.77613   1.66789   1.57741
   26  O   1.89264   1.79844   1.77365   1.45171
   27  S   1.89190   0.88245   1.24052   1.68064   0.04261   0.01897   0.02538   0.02363   0.01919
   28  S   1.16985   0.71102   0.63256   0.62562   0.15400   0.05228   0.09431   0.10547   0.09745
   29  S   1.17337   0.68835   0.64402   0.64292   0.03506   0.10930   0.13694   0.12115   0.10356
   30  H   0.66777
   31  H   0.64721
   32  H   0.67848
   33  H   0.70611
   34  H   0.70624
   35  H   0.70539
   36  H   0.70486
   37  H   0.80076
   38  H   0.82366
   39  H   0.82448
   40  H   0.83917
   41  H   0.83714
   42  H   0.82934
   43  H   0.82302
   44  H   0.83489

 **********************
 *                    *
 * JOB ENDED NORMALLY *
 *                    *
 **********************



 TOTAL JOB TIME:             4.82 SECONDS

 == MOPAC DONE ==
