 *******************************************************************************
 **                                                                           **
 **                              MOPAC v23.2.2                                **
 **                                                                           **
 *******************************************************************************
 **          Digital Object Identifier (DOI): 10.5281/zenodo.6511958          **
 **    Visit the DOI location for information on how to cite this program.    **
 *******************************************************************************

                              PM7 CALCULATION RESULTS

 *******************************************************************************
 *  CALCULATION DONE: (MAX THREADS = 24)             Wed Mar 18 11:58:24 2026  *
 *  PM7        - The PM7 Hamiltonian to be used
 *
 *
 *
 *                 CHARGE ON SYSTEM = 0
 *
 *
 *
 *  T=         - A TIME OF 172800.0 SECONDS REQUESTED
 *  DUMP=N     - RESTART FILE WRITTEN EVERY 7200.0 SECONDS REQUESTED
 *******************************************************************************
PM7 CHARGE=0


   ATOM   CHEMICAL          X               Y               Z
  NUMBER   SYMBOL      (ANGSTROMS)     (ANGSTROMS)     (ANGSTROMS)

     1       N         -1.06290000  *   0.96490000  *   1.12840000  *
     2       N         -1.96480000  *  -0.88650000  *  -0.09670000  *
     3       N          0.23160000  *   2.52190000  *   2.24850000  *
     4       N         -8.35350000  *   0.07440000  *   0.91020000  *
     5       N          8.10430000  *  -0.12500000  *  -2.03780000  *
     6       C          1.23850000  *   0.58430000  *   1.20990000  *
     7       C          0.16760000  *   1.37910000  *   1.54940000  *
     8       C         -0.96540000  *  -0.16630000  *   0.46690000  *
     9       C         -3.32630000  *  -0.56070000  *  -0.24110000  *
    10       C          2.63180000  *   0.76370000  *   1.55620000  *
    11       C          3.70660000  *   0.21210000  *   0.68910000  *
    12       C         -4.20070000  *  -1.55510000  *  -0.71910000  *
    13       C         -5.57180000  *  -1.31740000  *  -0.86060000  *
    14       C         -6.08810000  *  -0.07180000  *  -0.50990000  *
    15       C         -5.24620000  *   0.93480000  *  -0.03930000  *
    16       C         -3.87690000  *   0.68190000  *   0.10080000  *
    17       C          3.68220000  *   0.38860000  *  -0.70190000  *
    18       C          4.71810000  *  -0.12380000  *  -1.48630000  *
    19       C          5.78400000  *  -0.79140000  *  -0.87290000  *
    20       C          5.82120000  *  -0.96230000  *   0.51400000  *
    21       C          4.78480000  *  -0.44830000  *   1.29590000  *
    22       O          3.00180000  *   1.37710000  *   2.55870000  *
    23       O         -7.99170000  *   1.63700000  *  -1.05440000  *
    24       O         -8.42540000  *  -0.83370000  *  -1.41180000  *
    25       O          6.53980000  *  -1.76020000  *  -3.18030000  *
    26       O          7.82020000  *  -2.42160000  *  -1.09650000  *
    27       S          0.65070000  *  -0.78000000  *   0.35590000  *
    28       S         -7.82140000  *   0.25470000  *  -0.67770000  *
    29       S          7.08660000  *  -1.45530000  *  -1.88030000  *
    30       H         -1.69740000  *  -1.75630000  *  -0.53950000  *
    31       H          1.04110000  *   2.68930000  *   2.84560000  *
    32       H         -0.63530000  *   2.86420000  *   2.65000000  *
    33       H         -8.99090000  *  -0.72240000  *   0.95590000  *
    34       H         -7.59250000  *  -0.00600000  *   1.58370000  *
    35       H          7.70360000  *   0.74300000  *  -1.68500000  *
    36       H          9.00130000  *  -0.33810000  *  -1.59740000  *
    37       H         -3.81790000  *  -2.53720000  *  -0.98920000  *
    38       H         -6.21810000  *  -2.10480000  *  -1.24240000  *
    39       H         -5.63940000  *   1.91720000  *   0.21590000  *
    40       H         -3.24920000  *   1.48980000  *   0.46760000  *
    41       H          2.87030000  *   0.92960000  *  -1.18390000  *
    42       H          4.69000000  *  -0.00000000  *  -2.56810000  *
    43       H          6.64490000  *  -1.49020000  *   0.99130000  *
    44       H          4.81500000  *  -0.56680000  *   2.37810000  *



          CARTESIAN COORDINATES 

    NO.       ATOM           X           Y           Z

     1         N         -1.0629      0.9649      1.1284
     2         N         -1.9648     -0.8865     -0.0967
     3         N          0.2316      2.5219      2.2485
     4         N         -8.3535      0.0744      0.9102
     5         N          8.1043     -0.1250     -2.0378
     6         C          1.2385      0.5843      1.2099
     7         C          0.1676      1.3791      1.5494
     8         C         -0.9654     -0.1663      0.4669
     9         C         -3.3263     -0.5607     -0.2411
    10         C          2.6318      0.7637      1.5562
    11         C          3.7066      0.2121      0.6891
    12         C         -4.2007     -1.5551     -0.7191
    13         C         -5.5718     -1.3174     -0.8606
    14         C         -6.0881     -0.0718     -0.5099
    15         C         -5.2462      0.9348     -0.0393
    16         C         -3.8769      0.6819      0.1008
    17         C          3.6822      0.3886     -0.7019
    18         C          4.7181     -0.1238     -1.4863
    19         C          5.7840     -0.7914     -0.8729
    20         C          5.8212     -0.9623      0.5140
    21         C          4.7848     -0.4483      1.2959
    22         O          3.0018      1.3771      2.5587
    23         O         -7.9917      1.6370     -1.0544
    24         O         -8.4254     -0.8337     -1.4118
    25         O          6.5398     -1.7602     -3.1803
    26         O          7.8202     -2.4216     -1.0965
    27         S          0.6507     -0.7800      0.3559
    28         S         -7.8214      0.2547     -0.6777
    29         S          7.0866     -1.4553     -1.8803
    30         H         -1.6974     -1.7563     -0.5395
    31         H          1.0411      2.6893      2.8456
    32         H         -0.6353      2.8642      2.6500
    33         H         -8.9909     -0.7224      0.9559
    34         H         -7.5925     -0.0060      1.5837
    35         H          7.7036      0.7430     -1.6850
    36         H          9.0013     -0.3381     -1.5974
    37         H         -3.8179     -2.5372     -0.9892
    38         H         -6.2181     -2.1048     -1.2424
    39         H         -5.6394      1.9172      0.2159
    40         H         -3.2492      1.4898      0.4676
    41         H          2.8703      0.9296     -1.1839
    42         H          4.6900     -0.0000     -2.5681
    43         H          6.6449     -1.4902      0.9913
    44         H          4.8150     -0.5668      2.3781

 General Reference for PM7:
 "Optimization of Parameters for Semiempirical Methods VI: More Modifications to the 
 NDDO Approximations and Re-optimization of Parameters", J. J. P. Stewart, J. Mol. Mod., 1:32, 19 (2013)
 https://link.springer.com/article/10.1007/s00894-012-1667-x

           Empirical Formula: C16 H15 N5 O5 S3  =    44 atoms



      MOLECULAR POINT GROUP   :   C1  


      RHF CALCULATION, NO. OF DOUBLY OCCUPIED LEVELS = 76


          Geometry optimization using L-BFGS
 CYCLE:     1 TIME:   0.059 TIME LEFT:  2.00D  GRAD.:   167.277 HEAT: -85.82995
 CYCLE:     2 TIME:   0.023 TIME LEFT:  2.00D  GRAD.:   164.283 HEAT: -86.10736
 CYCLE:     3 TIME:   0.027 TIME LEFT:  2.00D  GRAD.:    48.376 HEAT: -95.94150
 CYCLE:     4 TIME:   0.031 TIME LEFT:  2.00D  GRAD.:   164.433 HEAT: -86.11128
 CYCLE:     5 TIME:   0.027 TIME LEFT:  2.00D  GRAD.:    48.396 HEAT: -95.94263
 CYCLE:     6 TIME:   0.023 TIME LEFT:  2.00D  GRAD.:    44.148 HEAT: -97.35103
 CYCLE:     7 TIME:   0.027 TIME LEFT:  2.00D  GRAD.:    42.195 HEAT: -99.13983
 CYCLE:     8 TIME:   0.027 TIME LEFT:  2.00D  GRAD.:    61.273 HEAT: -100.1502
 CYCLE:     9 TIME:   0.023 TIME LEFT:  2.00D  GRAD.:    29.618 HEAT: -100.9936
 CYCLE:    10 TIME:   0.027 TIME LEFT:  2.00D  GRAD.:    19.088 HEAT: -101.5068
 CYCLE:    11 TIME:   0.027 TIME LEFT:  2.00D  GRAD.:    18.205 HEAT: -101.7732
 CYCLE:    12 TIME:   0.027 TIME LEFT:  2.00D  GRAD.:    39.099 HEAT: -102.1030
 CYCLE:    13 TIME:   0.023 TIME LEFT:  2.00D  GRAD.:    15.149 HEAT: -102.4829
 CYCLE:    14 TIME:   0.023 TIME LEFT:  2.00D  GRAD.:    13.429 HEAT: -102.6233
 CYCLE:    15 TIME:   0.027 TIME LEFT:  2.00D  GRAD.:    15.814 HEAT: -102.9279
 CYCLE:    16 TIME:   0.027 TIME LEFT:  2.00D  GRAD.:    40.622 HEAT: -102.9763
 CYCLE:    17 TIME:   0.023 TIME LEFT:  2.00D  GRAD.:    14.486 HEAT: -103.2728
 CYCLE:    18 TIME:   0.023 TIME LEFT:  2.00D  GRAD.:     9.053 HEAT: -103.3955
 CYCLE:    19 TIME:   0.027 TIME LEFT:  2.00D  GRAD.:    11.109 HEAT: -103.5102
 CYCLE:    20 TIME:   0.027 TIME LEFT:  2.00D  GRAD.:    11.796 HEAT: -103.6627
 CYCLE:    21 TIME:   0.027 TIME LEFT:  2.00D  GRAD.:    22.962 HEAT: -103.7541
 CYCLE:    22 TIME:   0.023 TIME LEFT:  2.00D  GRAD.:     9.343 HEAT: -103.9041
 CYCLE:    23 TIME:   0.027 TIME LEFT:  2.00D  GRAD.:     9.663 HEAT: -103.9632
 CYCLE:    24 TIME:   0.023 TIME LEFT:  2.00D  GRAD.:    14.241 HEAT: -104.1360
 CYCLE:    25 TIME:   0.027 TIME LEFT:  2.00D  GRAD.:    21.265 HEAT: -104.3389
 CYCLE:    26 TIME:   0.031 TIME LEFT:  2.00D  GRAD.:    20.880 HEAT: -104.5341
 CYCLE:    27 TIME:   0.023 TIME LEFT:  2.00D  GRAD.:    24.821 HEAT: -104.8861
 CYCLE:    28 TIME:   0.027 TIME LEFT:  2.00D  GRAD.:    32.995 HEAT: -105.1860
 CYCLE:    29 TIME:   0.031 TIME LEFT:  2.00D  GRAD.:    43.129 HEAT: -105.6469
 CYCLE:    30 TIME:   0.023 TIME LEFT:  2.00D  GRAD.:    24.094 HEAT: -106.3179
 CYCLE:    31 TIME:   0.027 TIME LEFT:  2.00D  GRAD.:    21.108 HEAT: -106.7572
 CYCLE:    32 TIME:   0.027 TIME LEFT:  2.00D  GRAD.:    35.145 HEAT: -106.8345
 CYCLE:    33 TIME:   0.027 TIME LEFT:  2.00D  GRAD.:    19.610 HEAT: -107.4299
 CYCLE:    34 TIME:   0.027 TIME LEFT:  2.00D  GRAD.:    16.759 HEAT: -107.6839
 CYCLE:    35 TIME:   0.023 TIME LEFT:  2.00D  GRAD.:    13.722 HEAT: -107.8873
 CYCLE:    36 TIME:   0.027 TIME LEFT:  2.00D  GRAD.:    14.908 HEAT: -108.1203
 CYCLE:    37 TIME:   0.027 TIME LEFT:  2.00D  GRAD.:    22.667 HEAT: -108.2923
 CYCLE:    38 TIME:   0.023 TIME LEFT:  2.00D  GRAD.:    11.704 HEAT: -108.4686
 CYCLE:    39 TIME:   0.023 TIME LEFT:  2.00D  GRAD.:    10.309 HEAT: -108.6109
 CYCLE:    40 TIME:   0.023 TIME LEFT:  2.00D  GRAD.:    11.312 HEAT: -108.7121
 CYCLE:    41 TIME:   0.027 TIME LEFT:  2.00D  GRAD.:    29.417 HEAT: -108.7296
 CYCLE:    42 TIME:   0.023 TIME LEFT:  2.00D  GRAD.:     9.053 HEAT: -108.9369
 CYCLE:    43 TIME:   0.023 TIME LEFT:  2.00D  GRAD.:     7.157 HEAT: -108.9829
 CYCLE:    44 TIME:   0.027 TIME LEFT:  2.00D  GRAD.:    10.238 HEAT: -109.0689
 CYCLE:    45 TIME:   0.023 TIME LEFT:  2.00D  GRAD.:    19.734 HEAT: -109.1679
 CYCLE:    46 TIME:   0.027 TIME LEFT:  2.00D  GRAD.:    12.544 HEAT: -109.2959
 CYCLE:    47 TIME:   0.027 TIME LEFT:  2.00D  GRAD.:    13.672 HEAT: -109.4751
 CYCLE:    48 TIME:   0.023 TIME LEFT:  2.00D  GRAD.:    16.737 HEAT: -109.6627
 CYCLE:    49 TIME:   0.027 TIME LEFT:  2.00D  GRAD.:    23.918 HEAT: -109.8602
 CYCLE:    50 TIME:   0.027 TIME LEFT:  2.00D  GRAD.:    15.172 HEAT: -110.1267
 CYCLE:    51 TIME:   0.023 TIME LEFT:  2.00D  GRAD.:    14.141 HEAT: -110.2763
 CYCLE:    52 TIME:   0.027 TIME LEFT:  2.00D  GRAD.:    17.385 HEAT: -110.4444
 CYCLE:    53 TIME:   0.023 TIME LEFT:  2.00D  GRAD.:    16.813 HEAT: -110.5912
 CYCLE:    54 TIME:   0.023 TIME LEFT:  2.00D  GRAD.:    14.328 HEAT: -110.7865
 CYCLE:    55 TIME:   0.027 TIME LEFT:  2.00D  GRAD.:    14.481 HEAT: -110.9478
 CYCLE:    56 TIME:   0.027 TIME LEFT:  2.00D  GRAD.:    16.427 HEAT: -111.0856
 CYCLE:    57 TIME:   0.023 TIME LEFT:  2.00D  GRAD.:    15.596 HEAT: -111.2150
 CYCLE:    58 TIME:   0.027 TIME LEFT:  2.00D  GRAD.:    13.036 HEAT: -111.3436
 CYCLE:    59 TIME:   0.023 TIME LEFT:  2.00D  GRAD.:    10.899 HEAT: -111.4449
 CYCLE:    60 TIME:   0.027 TIME LEFT:  2.00D  GRAD.:     9.697 HEAT: -111.5383
 CYCLE:    61 TIME:   0.023 TIME LEFT:  2.00D  GRAD.:     9.847 HEAT: -111.6354
 CYCLE:    62 TIME:   0.027 TIME LEFT:  2.00D  GRAD.:    12.061 HEAT: -111.7308
 CYCLE:    63 TIME:   0.023 TIME LEFT:  2.00D  GRAD.:     9.826 HEAT: -111.8095
 CYCLE:    64 TIME:   0.023 TIME LEFT:  2.00D  GRAD.:     7.988 HEAT: -111.8762
 CYCLE:    65 TIME:   0.027 TIME LEFT:  2.00D  GRAD.:     9.629 HEAT: -111.9493
 CYCLE:    66 TIME:   0.027 TIME LEFT:  2.00D  GRAD.:    14.474 HEAT: -111.9970
 CYCLE:    67 TIME:   0.023 TIME LEFT:  2.00D  GRAD.:     6.926 HEAT: -112.0493
 CYCLE:    68 TIME:   0.023 TIME LEFT:  2.00D  GRAD.:     7.166 HEAT: -112.0844
 CYCLE:    69 TIME:   0.023 TIME LEFT:  2.00D  GRAD.:    10.020 HEAT: -112.1079
 CYCLE:    70 TIME:   0.023 TIME LEFT:  2.00D  GRAD.:     7.339 HEAT: -112.1602
 CYCLE:    71 TIME:   0.027 TIME LEFT:  2.00D  GRAD.:     7.420 HEAT: -112.1946
 CYCLE:    72 TIME:   0.023 TIME LEFT:  2.00D  GRAD.:     5.613 HEAT: -112.2193
 CYCLE:    73 TIME:   0.023 TIME LEFT:  2.00D  GRAD.:     4.142 HEAT: -112.2346
 CYCLE:    74 TIME:   0.027 TIME LEFT:  2.00D  GRAD.:     4.106 HEAT: -112.2574
 CYCLE:    75 TIME:   0.023 TIME LEFT:  2.00D  GRAD.:     5.826 HEAT: -112.2772
 CYCLE:    76 TIME:   0.023 TIME LEFT:  2.00D  GRAD.:     4.701 HEAT: -112.2971
 CYCLE:    77 TIME:   0.023 TIME LEFT:  2.00D  GRAD.:     3.920 HEAT: -112.3130
 CYCLE:    78 TIME:   0.023 TIME LEFT:  2.00D  GRAD.:     4.116 HEAT: -112.3286
 CYCLE:    79 TIME:   0.027 TIME LEFT:  2.00D  GRAD.:     4.555 HEAT: -112.3419
 CYCLE:    80 TIME:   0.023 TIME LEFT:  2.00D  GRAD.:     3.137 HEAT: -112.3550
 CYCLE:    81 TIME:   0.023 TIME LEFT:  2.00D  GRAD.:     4.225 HEAT: -112.3657
 CYCLE:    82 TIME:   0.027 TIME LEFT:  2.00D  GRAD.:     3.444 HEAT: -112.3743
 CYCLE:    83 TIME:   0.023 TIME LEFT:  2.00D  GRAD.:     2.971 HEAT: -112.3822
 CYCLE:    84 TIME:   0.027 TIME LEFT:  2.00D  GRAD.:     5.345 HEAT: -112.3923
 CYCLE:    85 TIME:   0.023 TIME LEFT:  2.00D  GRAD.:     3.867 HEAT: -112.3997
 CYCLE:    86 TIME:   0.023 TIME LEFT:  2.00D  GRAD.:     2.350 HEAT: -112.4036
 CYCLE:    87 TIME:   0.023 TIME LEFT:  2.00D  GRAD.:     1.835 HEAT: -112.4098
 CYCLE:    88 TIME:   0.027 TIME LEFT:  2.00D  GRAD.:     3.045 HEAT: -112.4174
 CYCLE:    89 TIME:   0.023 TIME LEFT:  2.00D  GRAD.:     5.792 HEAT: -112.4253
 CYCLE:    90 TIME:   0.023 TIME LEFT:  2.00D  GRAD.:     3.363 HEAT: -112.4353
 CYCLE:    91 TIME:   0.027 TIME LEFT:  2.00D  GRAD.:     2.796 HEAT: -112.4431
 CYCLE:    92 TIME:   0.023 TIME LEFT:  2.00D  GRAD.:     3.868 HEAT: -112.4533
 CYCLE:    93 TIME:   0.023 TIME LEFT:  2.00D  GRAD.:     5.060 HEAT: -112.4642
 CYCLE:    94 TIME:   0.023 TIME LEFT:  2.00D  GRAD.:     3.501 HEAT: -112.4752
 CYCLE:    95 TIME:   0.023 TIME LEFT:  2.00D  GRAD.:     3.298 HEAT: -112.4871
 CYCLE:    96 TIME:   0.027 TIME LEFT:  2.00D  GRAD.:     4.454 HEAT: -112.4963
 CYCLE:    97 TIME:   0.023 TIME LEFT:  2.00D  GRAD.:     3.815 HEAT: -112.5064
 CYCLE:    98 TIME:   0.027 TIME LEFT:  2.00D  GRAD.:     4.526 HEAT: -112.5228
 CYCLE:    99 TIME:   0.023 TIME LEFT:  2.00D  GRAD.:     5.032 HEAT: -112.5337
 CYCLE:   100 TIME:   0.023 TIME LEFT:  2.00D  GRAD.:     3.212 HEAT: -112.5425
 CYCLE:   101 TIME:   0.027 TIME LEFT:  2.00D  GRAD.:     2.890 HEAT: -112.5507
 CYCLE:   102 TIME:   0.023 TIME LEFT:  2.00D  GRAD.:     3.160 HEAT: -112.5603
 CYCLE:   103 TIME:   0.027 TIME LEFT:  2.00D  GRAD.:     5.934 HEAT: -112.5650
 CYCLE:   104 TIME:   0.023 TIME LEFT:  2.00D  GRAD.:     2.498 HEAT: -112.5731
 CYCLE:   105 TIME:   0.023 TIME LEFT:  2.00D  GRAD.:     2.474 HEAT: -112.5787
 CYCLE:   106 TIME:   0.027 TIME LEFT:  2.00D  GRAD.:     3.129 HEAT: -112.5849
 CYCLE:   107 TIME:   0.027 TIME LEFT:  2.00D  GRAD.:     4.119 HEAT: -112.5967
 CYCLE:   108 TIME:   0.023 TIME LEFT:  2.00D  GRAD.:     7.040 HEAT: -112.6001
 CYCLE:   109 TIME:   0.027 TIME LEFT:  2.00D  GRAD.:     3.022 HEAT: -112.6120
 CYCLE:   110 TIME:   0.023 TIME LEFT:  2.00D  GRAD.:     2.126 HEAT: -112.6164
 CYCLE:   111 TIME:   0.023 TIME LEFT:  2.00D  GRAD.:     1.886 HEAT: -112.6206
 CYCLE:   112 TIME:   0.023 TIME LEFT:  2.00D  GRAD.:     3.184 HEAT: -112.6244
 CYCLE:   113 TIME:   0.027 TIME LEFT:  2.00D  GRAD.:     2.512 HEAT: -112.6283
 CYCLE:   114 TIME:   0.023 TIME LEFT:  2.00D  GRAD.:     1.948 HEAT: -112.6319
 CYCLE:   115 TIME:   0.023 TIME LEFT:  2.00D  GRAD.:     2.481 HEAT: -112.6363
 CYCLE:   116 TIME:   0.027 TIME LEFT:  2.00D  GRAD.:     2.276 HEAT: -112.6414
 CYCLE:   117 TIME:   0.023 TIME LEFT:  2.00D  GRAD.:     2.382 HEAT: -112.6449
 CYCLE:   118 TIME:   0.023 TIME LEFT:  2.00D  GRAD.:     1.829 HEAT: -112.6484
 CYCLE:   119 TIME:   0.027 TIME LEFT:  2.00D  GRAD.:     2.304 HEAT: -112.6515
 CYCLE:   120 TIME:   0.023 TIME LEFT:  2.00D  GRAD.:     4.258 HEAT: -112.6540
 CYCLE:   121 TIME:   0.023 TIME LEFT:  2.00D  GRAD.:     2.154 HEAT: -112.6594
 CYCLE:   122 TIME:   0.023 TIME LEFT:  2.00D  GRAD.:     1.673 HEAT: -112.6637
 CYCLE:   123 TIME:   0.027 TIME LEFT:  2.00D  GRAD.:     1.926 HEAT: -112.6672
 CYCLE:   124 TIME:   0.023 TIME LEFT:  2.00D  GRAD.:     3.161 HEAT: -112.6726
 CYCLE:   125 TIME:   0.027 TIME LEFT:  2.00D  GRAD.:     3.017 HEAT: -112.6761
 CYCLE:   126 TIME:   0.023 TIME LEFT:  2.00D  GRAD.:     1.989 HEAT: -112.6792
 CYCLE:   127 TIME:   0.023 TIME LEFT:  2.00D  GRAD.:     1.866 HEAT: -112.6819
 CYCLE:   128 TIME:   0.027 TIME LEFT:  2.00D  GRAD.:     2.150 HEAT: -112.6850
 CYCLE:   129 TIME:   0.027 TIME LEFT:  2.00D  GRAD.:     3.680 HEAT: -112.6871
 CYCLE:   130 TIME:   0.023 TIME LEFT:  2.00D  GRAD.:     1.858 HEAT: -112.6911
 CYCLE:   131 TIME:   0.023 TIME LEFT:  2.00D  GRAD.:     1.845 HEAT: -112.6949
 CYCLE:   132 TIME:   0.023 TIME LEFT:  2.00D  GRAD.:     1.956 HEAT: -112.6985
 CYCLE:   133 TIME:   0.027 TIME LEFT:  2.00D  GRAD.:     3.973 HEAT: -112.7008
 CYCLE:   134 TIME:   0.023 TIME LEFT:  2.00D  GRAD.:     1.560 HEAT: -112.7046
 CYCLE:   135 TIME:   0.023 TIME LEFT:  2.00D  GRAD.:     1.479 HEAT: -112.7066
 CYCLE:   136 TIME:   0.027 TIME LEFT:  2.00D  GRAD.:     1.620 HEAT: -112.7101
 CYCLE:   137 TIME:   0.027 TIME LEFT:  2.00D  GRAD.:     4.737 HEAT: -112.7116
 CYCLE:   138 TIME:   0.023 TIME LEFT:  2.00D  GRAD.:     1.594 HEAT: -112.7159
 CYCLE:   139 TIME:   0.023 TIME LEFT:  2.00D  GRAD.:     1.209 HEAT: -112.7177
 CYCLE:   140 TIME:   0.027 TIME LEFT:  2.00D  GRAD.:     1.408 HEAT: -112.7195
 CYCLE:   141 TIME:   0.027 TIME LEFT:  2.00D  GRAD.:     2.857 HEAT: -112.7215
 CYCLE:   142 TIME:   0.023 TIME LEFT:  2.00D  GRAD.:     1.446 HEAT: -112.7236
 CYCLE:   143 TIME:   0.023 TIME LEFT:  2.00D  GRAD.:     1.029 HEAT: -112.7247
 CYCLE:   144 TIME:   0.027 TIME LEFT:  2.00D  GRAD.:     1.293 HEAT: -112.7258
 CYCLE:   145 TIME:   0.023 TIME LEFT:  2.00D  GRAD.:     1.689 HEAT: -112.7271
 CYCLE:   146 TIME:   0.023 TIME LEFT:  2.00D  GRAD.:     1.246 HEAT: -112.7286
 CYCLE:   147 TIME:   0.023 TIME LEFT:  2.00D  GRAD.:     1.454 HEAT: -112.7297
 CYCLE:   148 TIME:   0.027 TIME LEFT:  2.00D  GRAD.:     1.150 HEAT: -112.7307
 CYCLE:   149 TIME:   0.023 TIME LEFT:  2.00D  GRAD.:     1.233 HEAT: -112.7320
 CYCLE:   150 TIME:   0.027 TIME LEFT:  2.00D  GRAD.:     2.258 HEAT: -112.7346
 CYCLE:   151 TIME:   0.023 TIME LEFT:  2.00D  GRAD.:     1.906 HEAT: -112.7372
 CYCLE:   152 TIME:   0.023 TIME LEFT:  2.00D  GRAD.:     1.732 HEAT: -112.7395
 CYCLE:   153 TIME:   0.027 TIME LEFT:  2.00D  GRAD.:     1.666 HEAT: -112.7424
 CYCLE:   154 TIME:   0.027 TIME LEFT:  2.00D  GRAD.:     2.585 HEAT: -112.7449
 CYCLE:   155 TIME:   0.027 TIME LEFT:  2.00D  GRAD.:     4.236 HEAT: -112.7454
 CYCLE:   156 TIME:   0.023 TIME LEFT:  2.00D  GRAD.:     1.215 HEAT: -112.7498
 CYCLE:   157 TIME:   0.023 TIME LEFT:  2.00D  GRAD.:     0.920 HEAT: -112.7509

 -------------------------------------------------------------------------------
 PM7 CHARGE=0




     HERBERTS TEST WAS SATISFIED IN BFGS                      
     SCF FIELD WAS ACHIEVED                                   


                              PM7 CALCULATION
                                                       MOPAC v23.2.2 Linux
                                                       Wed Mar 18 11:58:28 2026




          FINAL HEAT OF FORMATION =       -112.75093 KCAL/MOL =    -471.74987 KJ/MOL


          COSMO AREA              =        412.68 SQUARE ANGSTROMS
          COSMO VOLUME            =        460.98 CUBIC ANGSTROMS

          GRADIENT NORM           =          0.92044          =       0.13876 PER ATOM
          IONIZATION POTENTIAL    =          8.858097 EV
          HOMO LUMO ENERGIES (EV) =         -8.858 -1.434
          NO. OF FILLED LEVELS    =         76
          MOLECULAR WEIGHT        =        453.5050         POINT GROUP:  C1  

          MOLECULAR DIMENSIONS (Angstroms)

            Atom       Atom       Distance
            H    36    H    33    18.39354
            H    31    O    25     6.82059
            O    23    H    43     5.12514


          SCF CALCULATIONS        =        158

          WALL-CLOCK TIME         =      4.023 SECONDS
          COMPUTATION TIME        =          1 MINUTE AND 36.446 SECONDS




   ATOM   CHEMICAL          X               Y               Z
  NUMBER   SYMBOL      (ANGSTROMS)     (ANGSTROMS)     (ANGSTROMS)

     1       N         -1.12365658  *   0.76526330  *   1.15982334  *
     2       N         -1.95354925  *  -0.90804196  *  -0.34899003  *
     3       N          0.13062377  *   2.24625192  *   2.51322421  *
     4       N         -8.42325913  *  -0.20732127  *   1.05792552  *
     5       N          8.34010257  *  -0.24081657  *  -1.74977961  *
     6       C          1.25751634  *   0.64566613  *   1.03869404  *
     7       C          0.11917613  *   1.25203891  *   1.60492015  *
     8       C         -0.96059276  *  -0.22208169  *   0.28419010  *
     9       C         -3.33649216  *  -0.60390439  *  -0.29687503  *
    10       C          2.59440437  *   1.05095463  *   1.33130800  *
    11       C          3.70839637  *   0.40910760  *   0.57812704  *
    12       C         -4.21674743  *  -1.60588573  *  -0.74896527  *
    13       C         -5.58138824  *  -1.34942482  *  -0.79140669  *
    14       C         -6.07717461  *  -0.10858206  *  -0.39035101  *
    15       C         -5.20360584  *   0.87568386  *   0.06899296  *
    16       C         -3.83411124  *   0.63541172  *   0.12042862  *
    17       C          3.85092173  *   0.65311224  *  -0.78673433  *
    18       C          4.90416255  *   0.06205050  *  -1.48134080  *
    19       C          5.80869268  *  -0.75441734  *  -0.80417315  *
    20       C          5.66437708  *  -0.99316695  *   0.56103498  *
    21       C          4.60898144  *  -0.40714094  *   1.25832913  *
    22       O          2.84103367  *   1.90717401  *   2.16569634  *
    23       O         -7.96989269  *   1.66233682  *  -0.59900752  *
    24       O         -8.38638384  *  -0.69072182  *  -1.43733684  *
    25       O          6.72117965  *  -1.70182994  *  -3.05182309  *
    26       O          7.70236215  *  -2.54543012  *  -0.87853924  *
    27       S          0.78055010  *  -0.62560255  *  -0.04807482  *
    28       S         -7.79123953  *   0.23261087  *  -0.49983752  *
    29       S          7.13562055  *  -1.49022749  *  -1.68483488  *
    30       H         -1.69501100  *  -1.73424567  *  -0.89279619  *
    31       H          1.02794268  *   2.59425231  *   2.84055842  *
    32       H         -0.71672277  *   2.63341005  *   2.87772377  *
    33       H         -9.04686698  *  -0.99675001  *   1.08559109  *
    34       H         -8.77972751  *   0.54308385  *   1.62641286  *
    35       H          8.54325883  *   0.14671156  *  -2.65614057  *
    36       H          9.18992029  *  -0.40549528  *  -1.23655368  *
    37       H         -3.84089101  *  -2.57618305  *  -1.06227468  *
    38       H         -6.25886121  *  -2.13317629  *  -1.15506316  *
    39       H         -5.57800233  *   1.85942773  *   0.38255215  *
    40       H         -3.16486622  *   1.42015563  *   0.48169505  *
    41       H          3.15055630  *   1.30554701  *  -1.30744840  *
    42       H          4.99970237  *   0.24228731  *  -2.55741877  *
    43       H          6.36730092  *  -1.63983154  *   1.09968724  *
    44       H          4.49233290  *  -0.57580495  *   2.32875415  *

                             CARTESIAN COORDINATES

   1    N       -1.123656575     0.765263297     1.159823343
   2    N       -1.953549248    -0.908041958    -0.348990029
   3    N        0.130623775     2.246251919     2.513224213
   4    N       -8.423259129    -0.207321268     1.057925524
   5    N        8.340102566    -0.240816575    -1.749779610
   6    C        1.257516340     0.645666132     1.038694043
   7    C        0.119176131     1.252038914     1.604920150
   8    C       -0.960592764    -0.222081686     0.284190101
   9    C       -3.336492162    -0.603904393    -0.296875031
  10    C        2.594404370     1.050954634     1.331308005
  11    C        3.708396374     0.409107601     0.578127043
  12    C       -4.216747427    -1.605885734    -0.748965272
  13    C       -5.581388240    -1.349424820    -0.791406687
  14    C       -6.077174612    -0.108582060    -0.390351014
  15    C       -5.203605843     0.875683859     0.068992957
  16    C       -3.834111239     0.635411719     0.120428618
  17    C        3.850921730     0.653112241    -0.786734328
  18    C        4.904162550     0.062050502    -1.481340795
  19    C        5.808692677    -0.754417342    -0.804173154
  20    C        5.664377081    -0.993166948     0.561034983
  21    C        4.608981437    -0.407140938     1.258329132
  22    O        2.841033671     1.907174008     2.165696341
  23    O       -7.969892691     1.662336822    -0.599007518
  24    O       -8.386383837    -0.690721824    -1.437336837
  25    O        6.721179648    -1.701829944    -3.051823087
  26    O        7.702362149    -2.545430119    -0.878539241
  27    S        0.780550105    -0.625602552    -0.048074822
  28    S       -7.791239527     0.232610867    -0.499837518
  29    S        7.135620548    -1.490227491    -1.684834880
  30    H       -1.695011004    -1.734245672    -0.892796187
  31    H        1.027942683     2.594252307     2.840558419
  32    H       -0.716722771     2.633410052     2.877723771
  33    H       -9.046866984    -0.996750010     1.085591088
  34    H       -8.779727514     0.543083855     1.626412865
  35    H        8.543258833     0.146711556    -2.656140570
  36    H        9.189920286    -0.405495282    -1.236553682
  37    H       -3.840891009    -2.576183048    -1.062274684
  38    H       -6.258861209    -2.133176286    -1.155063157
  39    H       -5.578002326     1.859427731     0.382552154
  40    H       -3.164866222     1.420155628     0.481695054
  41    H        3.150556305     1.305547005    -1.307448402
  42    H        4.999702371     0.242287313    -2.557418765
  43    H        6.367300925    -1.639831535     1.099687237
  44    H        4.492332900    -0.575804949     2.328754154


           Empirical Formula: C16 H15 N5 O5 S3  =    44 atoms



      MOLECULAR POINT GROUP   :   C1  


                  EIGENVALUES  
 -38.66058 -38.08744 -36.06364 -36.04170 -35.96100 -31.47256 -31.30621 -30.74843
 -29.41761 -29.35439 -28.50207 -27.97445 -27.87951 -26.83413 -26.75154 -26.47036
 -26.31490 -24.88452 -23.63232 -22.66707 -22.37411 -21.72471 -21.49627 -20.56331
 -19.89076 -19.72804 -19.68460 -18.79967 -18.05318 -17.63891 -17.15929 -17.08403
 -17.05327 -16.70818 -16.51246 -16.38315 -16.11507 -15.93755 -15.83892 -15.68956
 -15.63767 -15.50934 -15.18980 -15.08298 -14.88698 -14.78473 -14.49311 -14.13058
 -14.10478 -13.94161 -13.88543 -13.76197 -13.56263 -13.25617 -12.81278 -12.64025
 -12.52605 -12.44250 -12.36215 -11.82012 -11.74442 -11.70552 -11.62786 -11.58927
 -11.50649 -11.41846 -11.12927 -10.85971 -10.69366 -10.66441 -10.64666 -10.51043
 -10.41382 -10.34890  -9.83082  -8.85810  -1.43368  -1.08709  -0.80544  -0.57346
  -0.52831  -0.51598  -0.27981   0.09631   0.10440   0.27806   0.51654   0.68430
   0.70587   0.77254   1.08264   1.34081   1.57113   1.61180   1.80252   2.01680
   2.60726   2.61703   2.67575   2.75596   2.85962   2.92881   2.94667   3.15240
   3.27444   3.48400   3.57697   3.80871   3.91788   3.95067   4.07781   4.24438
   4.26661   4.30657   4.39121   4.46591   4.49896   4.56521   4.59483   4.66355
   4.68958   4.70367   4.73287   4.79889   4.95586   4.99990   5.07328   5.16315
   5.24494   5.31116   5.33310   5.36320   5.41219   5.45465   5.50504   5.59495
   5.71862   5.80632   5.85254   5.96721   6.04131   6.32747   6.35947   6.41994
   6.62828   6.71097


              NET ATOMIC CHARGES AND DIPOLE CONTRIBUTIONS

  ATOM NO.   TYPE          CHARGE      No. of ELECS.   s-Pop       p-Pop       d-Pop       
    1          N          -0.574966        5.5750     1.76909     3.80588
    2          N          -0.465135        5.4651     1.52006     3.94508
    3          N          -0.524880        5.5249     1.50951     4.01537
    4          N          -0.943072        5.9431     1.65639     4.28668
    5          N          -0.942791        5.9428     1.65503     4.28776
    6          C          -0.606197        4.6062     1.05755     3.54865
    7          C           0.508418        3.4916     1.05282     2.43876
    8          C           0.343255        3.6567     1.10951     2.54724
    9          C           0.247775        3.7522     1.06286     2.68936
   10          C           0.522293        3.4777     1.08367     2.39403
   11          C          -0.071659        4.0717     1.08469     2.98697
   12          C          -0.278692        4.2787     1.07634     3.20235
   13          C          -0.013298        4.0133     1.08946     2.92384
   14          C          -0.417929        4.4179     1.10705     3.31088
   15          C          -0.012717        4.0127     1.09177     2.92094
   16          C          -0.237714        4.2377     1.08364     3.15408
   17          C          -0.155323        4.1553     1.08254     3.07278
   18          C          -0.067810        4.0678     1.08815     2.97966
   19          C          -0.359678        4.3597     1.11172     3.24796
   20          C          -0.072363        4.0724     1.08983     2.98253
   21          C          -0.142243        4.1422     1.08343     3.05881
   22          O          -0.524282        6.5243     1.88178     4.64250
   23          O          -0.914522        6.9145     1.89289     5.02163
   24          O          -0.917265        6.9173     1.89272     5.02455
   25          O          -0.916461        6.9165     1.89265     5.02381
   26          O          -0.913878        6.9139     1.89264     5.02124
   27          S           0.174419        5.8256     1.89182     3.80383     0.12993
   28          S           2.358031        3.6420     1.16958     1.96894     0.50346
   29          S           2.345956        3.6540     1.17306     1.97498     0.50601
   30          H           0.332504        0.6675     0.66750
   31          H           0.352553        0.6474     0.64745
   32          H           0.321532        0.6785     0.67847
   33          H           0.293837        0.7062     0.70616
   34          H           0.294096        0.7059     0.70590
   35          H           0.294710        0.7053     0.70529
   36          H           0.295387        0.7046     0.70461
   37          H           0.160867        0.8391     0.83913
   38          H           0.175226        0.8248     0.82477
   39          H           0.176394        0.8236     0.82361
   40          H           0.200142        0.7999     0.79986
   41          H           0.162920        0.8371     0.83708
   42          H           0.170333        0.8297     0.82967
   43          H           0.177177        0.8228     0.82282
   44          H           0.165050        0.8350     0.83495
 DIPOLE           X         Y         Z       TOTAL
 POINT-CHG.    -1.252     0.091     2.541     2.834
 HYBRID         0.447     0.429     0.457     0.770
 SUM           -0.805     0.521     2.997     3.147


          ATOMIC ORBITAL ELECTRON POPULATIONS

     Atom    s        px        py        pz      x^2-y^2     xz        z^2       yz        xy
    1  N   1.76909   1.28945   1.25028   1.26614
    2  N   1.52006   1.11401   1.33992   1.49114
    3  N   1.50951   1.22831   1.37118   1.41588
    4  N   1.65639   1.60964   1.29020   1.38684
    5  N   1.65503   1.35255   1.56448   1.37073
    6  C   1.05755   1.04146   1.21525   1.29194
    7  C   1.05282   0.84152   0.79930   0.79795
    8  C   1.10951   0.87247   0.84362   0.83115
    9  C   1.06286   0.78031   0.97360   0.93546
   10  C   1.08367   0.88235   0.75595   0.75574
   11  C   1.08469   1.00269   0.98790   0.99638
   12  C   1.07634   1.01045   1.06995   1.12195
   13  C   1.08946   1.00537   1.01024   0.90823
   14  C   1.10705   1.11156   1.04381   1.15551
   15  C   1.09177   0.97486   1.04435   0.90173
   16  C   1.08364   1.03964   1.03902   1.07542
   17  C   1.08254   1.03951   1.03790   0.99537
   18  C   1.08815   0.95711   0.94735   1.07521
   19  C   1.11172   1.10101   1.09992   1.04703
   20  C   1.08983   1.01082   0.98674   0.98497
   21  C   1.08343   0.98035   0.99715   1.08131
   22  O   1.88178   1.87598   1.37738   1.38913
   23  O   1.89289   1.83455   1.37033   1.81675
   24  O   1.89272   1.76733   1.61994   1.63728
   25  O   1.89265   1.79614   1.81163   1.41604
   26  O   1.89264   1.76283   1.58802   1.67039
   27  S   1.89182   0.88610   1.39997   1.51776   0.04212   0.01758   0.02904   0.02415   0.01705
   28  S   1.16958   0.71167   0.63100   0.62627   0.14890   0.05302   0.09803   0.11276   0.09076
   29  S   1.17306   0.68917   0.63518   0.65062   0.04640   0.11589   0.12867   0.11336   0.10168
   30  H   0.66750
   31  H   0.64745
   32  H   0.67847
   33  H   0.70616
   34  H   0.70590
   35  H   0.70529
   36  H   0.70461
   37  H   0.83913
   38  H   0.82477
   39  H   0.82361
   40  H   0.79986
   41  H   0.83708
   42  H   0.82967
   43  H   0.82282
   44  H   0.83495

 **********************
 *                    *
 * JOB ENDED NORMALLY *
 *                    *
 **********************



 TOTAL JOB TIME:             4.02 SECONDS

 == MOPAC DONE ==
