 *******************************************************************************
 **                                                                           **
 **                              MOPAC v23.2.2                                **
 **                                                                           **
 *******************************************************************************
 **          Digital Object Identifier (DOI): 10.5281/zenodo.6511958          **
 **    Visit the DOI location for information on how to cite this program.    **
 *******************************************************************************

                              PM7 CALCULATION RESULTS

 *******************************************************************************
 *  CALCULATION DONE: (MAX THREADS = 24)             Wed Mar 18 11:58:49 2026  *
 *  PM7        - The PM7 Hamiltonian to be used
 *
 *
 *
 *                 CHARGE ON SYSTEM = 0
 *
 *
 *
 *  T=         - A TIME OF 172800.0 SECONDS REQUESTED
 *  DUMP=N     - RESTART FILE WRITTEN EVERY 7200.0 SECONDS REQUESTED
 *******************************************************************************
PM7 CHARGE=0


   ATOM   CHEMICAL          X               Y               Z
  NUMBER   SYMBOL      (ANGSTROMS)     (ANGSTROMS)     (ANGSTROMS)

     1       N          1.25800000  *  -0.68340000  *   1.20730000  *
     2       N          1.88560000  *  -0.15550000  *  -1.04560000  *
     3       N          0.20210000  *  -1.23010000  *   3.19330000  *
     4       N          8.01610000  *   2.06310000  *  -0.53420000  *
     5       N         -8.23330000  *   1.53710000  *   0.15840000  *
     6       C         -1.06070000  *  -0.94690000  *   1.15090000  *
     7       C          0.10530000  *  -0.96590000  *   1.88160000  *
     8       C          1.00540000  *  -0.46630000  *  -0.06370000  *
     9       C          3.28770000  *  -0.04750000  *  -0.99000000  *
    10       C         -2.40360000  *  -1.24590000  *   1.60030000  *
    11       C         -3.58230000  *  -0.64950000  *   0.91720000  *
    12       C          3.96740000  *   0.38090000  *  -2.14600000  *
    13       C          5.35720000  *   0.53460000  *  -2.16240000  *
    14       C          6.08830000  *   0.26830000  *  -1.00610000  *
    15       C          5.44480000  *  -0.16550000  *   0.15120000  *
    16       C          4.05250000  *  -0.31170000  *   0.15430000  *
    17       C         -4.68060000  *  -1.47320000  *   0.63290000  *
    18       C         -5.81020000  *  -0.94170000  *   0.00720000  *
    19       C         -5.84490000  *   0.41970000  *  -0.31030000  *
    20       C         -4.75780000  *   1.25090000  *  -0.01980000  *
    21       C         -3.62840000  *   0.71700000  *   0.60570000  *
    22       O         -2.64130000  *  -1.98660000  *   2.55580000  *
    23       O          8.31220000  *   0.35750000  *  -2.38310000  *
    24       O          8.40690000  *  -0.33400000  *   0.05230000  *
    25       O         -7.96090000  *   0.02260000  *  -1.81190000  *
    26       O         -6.88570000  *   2.31510000  *  -1.79720000  *
    27       S         -0.67110000  *  -0.59790000  *  -0.48070000  *
    28       S          7.84990000  *   0.45840000  *  -1.01950000  *
    29       S         -7.26260000  *   1.08900000  *  -1.13400000  *
    30       H          1.49660000  *  -0.03170000  *  -1.97170000  *
    31       H          1.12170000  *  -1.47540000  *   3.54530000  *
    32       H         -0.54850000  *  -1.75310000  *   3.64420000  *
    33       H          8.49970000  *   2.08480000  *   0.36540000  *
    34       H          7.13000000  *   2.56580000  *  -0.50040000  *
    35       H         -8.37960000  *   2.54710000  *   0.15120000  *
    36       H         -9.10000000  *   0.99820000  *   0.14640000  *
    37       H          3.41510000  *   0.59970000  *  -3.05770000  *
    38       H          5.85490000  *   0.85760000  *  -3.07480000  *
    39       H          6.00750000  *  -0.39620000  *   1.05340000  *
    40       H          3.58380000  *  -0.65040000  *   1.07430000  *
    41       H         -4.65640000  *  -2.52940000  *   0.89670000  *
    42       H         -6.65410000  *  -1.58900000  *  -0.22300000  *
    43       H         -4.78660000  *   2.30990000  *  -0.26930000  *
    44       H         -2.80000000  *   1.37650000  *   0.85590000  *



          CARTESIAN COORDINATES 

    NO.       ATOM           X           Y           Z

     1         N          1.2580     -0.6834      1.2073
     2         N          1.8856     -0.1555     -1.0456
     3         N          0.2021     -1.2301      3.1933
     4         N          8.0161      2.0631     -0.5342
     5         N         -8.2333      1.5371      0.1584
     6         C         -1.0607     -0.9469      1.1509
     7         C          0.1053     -0.9659      1.8816
     8         C          1.0054     -0.4663     -0.0637
     9         C          3.2877     -0.0475     -0.9900
    10         C         -2.4036     -1.2459      1.6003
    11         C         -3.5823     -0.6495      0.9172
    12         C          3.9674      0.3809     -2.1460
    13         C          5.3572      0.5346     -2.1624
    14         C          6.0883      0.2683     -1.0061
    15         C          5.4448     -0.1655      0.1512
    16         C          4.0525     -0.3117      0.1543
    17         C         -4.6806     -1.4732      0.6329
    18         C         -5.8102     -0.9417      0.0072
    19         C         -5.8449      0.4197     -0.3103
    20         C         -4.7578      1.2509     -0.0198
    21         C         -3.6284      0.7170      0.6057
    22         O         -2.6413     -1.9866      2.5558
    23         O          8.3122      0.3575     -2.3831
    24         O          8.4069     -0.3340      0.0523
    25         O         -7.9609      0.0226     -1.8119
    26         O         -6.8857      2.3151     -1.7972
    27         S         -0.6711     -0.5979     -0.4807
    28         S          7.8499      0.4584     -1.0195
    29         S         -7.2626      1.0890     -1.1340
    30         H          1.4966     -0.0317     -1.9717
    31         H          1.1217     -1.4754      3.5453
    32         H         -0.5485     -1.7531      3.6442
    33         H          8.4997      2.0848      0.3654
    34         H          7.1300      2.5658     -0.5004
    35         H         -8.3796      2.5471      0.1512
    36         H         -9.1000      0.9982      0.1464
    37         H          3.4151      0.5997     -3.0577
    38         H          5.8549      0.8576     -3.0748
    39         H          6.0075     -0.3962      1.0534
    40         H          3.5838     -0.6504      1.0743
    41         H         -4.6564     -2.5294      0.8967
    42         H         -6.6541     -1.5890     -0.2230
    43         H         -4.7866      2.3099     -0.2693
    44         H         -2.8000      1.3765      0.8559

 General Reference for PM7:
 "Optimization of Parameters for Semiempirical Methods VI: More Modifications to the 
 NDDO Approximations and Re-optimization of Parameters", J. J. P. Stewart, J. Mol. Mod., 1:32, 19 (2013)
 https://link.springer.com/article/10.1007/s00894-012-1667-x

           Empirical Formula: C16 H15 N5 O5 S3  =    44 atoms



      MOLECULAR POINT GROUP   :   C1  


      RHF CALCULATION, NO. OF DOUBLY OCCUPIED LEVELS = 76


          Geometry optimization using L-BFGS
 CYCLE:     1 TIME:   0.082 TIME LEFT:  2.00D  GRAD.:   167.518 HEAT: -89.80696
 CYCLE:     2 TIME:   0.031 TIME LEFT:  2.00D  GRAD.:   164.614 HEAT: -90.08512
 CYCLE:     3 TIME:   0.035 TIME LEFT:  2.00D  GRAD.:    48.498 HEAT: -100.2272
 CYCLE:     4 TIME:   0.035 TIME LEFT:  2.00D  GRAD.:   164.850 HEAT: -90.08934
 CYCLE:     5 TIME:   0.039 TIME LEFT:  2.00D  GRAD.:    48.542 HEAT: -100.2284
 CYCLE:     6 TIME:   0.031 TIME LEFT:  2.00D  GRAD.:    45.513 HEAT: -101.6254
 CYCLE:     7 TIME:   0.039 TIME LEFT:  2.00D  GRAD.:    38.153 HEAT: -103.3167
 CYCLE:     8 TIME:   0.035 TIME LEFT:  2.00D  GRAD.:    61.398 HEAT: -104.3979
 CYCLE:     9 TIME:   0.031 TIME LEFT:  2.00D  GRAD.:    27.172 HEAT: -105.3407
 CYCLE:    10 TIME:   0.035 TIME LEFT:  2.00D  GRAD.:    17.400 HEAT: -105.7243
 CYCLE:    11 TIME:   0.035 TIME LEFT:  2.00D  GRAD.:    16.302 HEAT: -105.9679
 CYCLE:    12 TIME:   0.031 TIME LEFT:  2.00D  GRAD.:    33.564 HEAT: -106.2228
 CYCLE:    13 TIME:   0.035 TIME LEFT:  2.00D  GRAD.:    13.590 HEAT: -106.5079
 CYCLE:    14 TIME:   0.031 TIME LEFT:  2.00D  GRAD.:    11.978 HEAT: -106.6217
 CYCLE:    15 TIME:   0.031 TIME LEFT:  2.00D  GRAD.:    14.880 HEAT: -106.8431
 CYCLE:    16 TIME:   0.035 TIME LEFT:  2.00D  GRAD.:    27.054 HEAT: -107.0112
 CYCLE:    17 TIME:   0.031 TIME LEFT:  2.00D  GRAD.:    13.950 HEAT: -107.2299
 CYCLE:    18 TIME:   0.035 TIME LEFT:  2.00D  GRAD.:     9.247 HEAT: -107.3853
 CYCLE:    19 TIME:   0.031 TIME LEFT:  2.00D  GRAD.:    11.177 HEAT: -107.4910
 CYCLE:    20 TIME:   0.035 TIME LEFT:  2.00D  GRAD.:    19.666 HEAT: -107.6168
 CYCLE:    21 TIME:   0.035 TIME LEFT:  2.00D  GRAD.:     9.771 HEAT: -107.7557
 CYCLE:    22 TIME:   0.031 TIME LEFT:  2.00D  GRAD.:     9.106 HEAT: -107.8603
 CYCLE:    23 TIME:   0.031 TIME LEFT:  2.00D  GRAD.:    13.282 HEAT: -107.9443
 CYCLE:    24 TIME:   0.035 TIME LEFT:  2.00D  GRAD.:    12.354 HEAT: -108.0706
 CYCLE:    25 TIME:   0.031 TIME LEFT:  2.00D  GRAD.:    12.665 HEAT: -108.2081
 CYCLE:    26 TIME:   0.039 TIME LEFT:  2.00D  GRAD.:    16.124 HEAT: -108.4052
 CYCLE:    27 TIME:   0.035 TIME LEFT:  2.00D  GRAD.:    19.670 HEAT: -108.6094
 CYCLE:    28 TIME:   0.035 TIME LEFT:  2.00D  GRAD.:    19.428 HEAT: -108.9276
 CYCLE:    29 TIME:   0.035 TIME LEFT:  2.00D  GRAD.:    30.666 HEAT: -109.3239
 CYCLE:    30 TIME:   0.035 TIME LEFT:  2.00D  GRAD.:    47.014 HEAT: -109.0317
 CYCLE:    31 TIME:   0.035 TIME LEFT:  2.00D  GRAD.:    46.131 HEAT: -109.4289
 CYCLE:    32 TIME:   0.035 TIME LEFT:  2.00D  GRAD.:    37.690 HEAT: -109.6164
 CYCLE:    33 TIME:   0.035 TIME LEFT:  2.00D  GRAD.:    10.329 HEAT: -109.9693
 CYCLE:    34 TIME:   0.031 TIME LEFT:  2.00D  GRAD.:     9.327 HEAT: -110.0444
 CYCLE:    35 TIME:   0.031 TIME LEFT:  2.00D  GRAD.:    13.043 HEAT: -110.2424
 CYCLE:    36 TIME:   0.035 TIME LEFT:  2.00D  GRAD.:    32.984 HEAT: -110.2369
 CYCLE:    37 TIME:   0.031 TIME LEFT:  2.00D  GRAD.:    10.469 HEAT: -110.4003
 CYCLE:    38 TIME:   0.027 TIME LEFT:  2.00D  GRAD.:     6.558 HEAT: -110.4465
 CYCLE:    39 TIME:   0.031 TIME LEFT:  2.00D  GRAD.:     8.441 HEAT: -110.5150
 CYCLE:    40 TIME:   0.031 TIME LEFT:  2.00D  GRAD.:     9.110 HEAT: -110.5831
 CYCLE:    41 TIME:   0.035 TIME LEFT:  2.00D  GRAD.:    36.031 HEAT: -110.4803
 CYCLE:    42 TIME:   0.027 TIME LEFT:  2.00D  GRAD.:     6.988 HEAT: -110.6909
 CYCLE:    43 TIME:   0.031 TIME LEFT:  2.00D  GRAD.:     5.406 HEAT: -110.7158
 CYCLE:    44 TIME:   0.035 TIME LEFT:  2.00D  GRAD.:     8.086 HEAT: -110.7799
 CYCLE:    45 TIME:   0.027 TIME LEFT:  2.00D  GRAD.:     9.931 HEAT: -110.8349
 CYCLE:    46 TIME:   0.035 TIME LEFT:  2.00D  GRAD.:    10.321 HEAT: -110.9208
 CYCLE:    47 TIME:   0.031 TIME LEFT:  2.00D  GRAD.:    15.952 HEAT: -111.0035
 CYCLE:    48 TIME:   0.031 TIME LEFT:  2.00D  GRAD.:    11.128 HEAT: -111.1101
 CYCLE:    49 TIME:   0.035 TIME LEFT:  2.00D  GRAD.:    10.711 HEAT: -111.2672
 CYCLE:    50 TIME:   0.031 TIME LEFT:  2.00D  GRAD.:    19.682 HEAT: -111.3710
 CYCLE:    51 TIME:   0.035 TIME LEFT:  2.00D  GRAD.:    10.378 HEAT: -111.5035
 CYCLE:    52 TIME:   0.031 TIME LEFT:  2.00D  GRAD.:     8.252 HEAT: -111.5882
 CYCLE:    53 TIME:   0.031 TIME LEFT:  2.00D  GRAD.:    10.062 HEAT: -111.6456
 CYCLE:    54 TIME:   0.035 TIME LEFT:  2.00D  GRAD.:    13.104 HEAT: -111.6953
 CYCLE:    55 TIME:   0.027 TIME LEFT:  2.00D  GRAD.:    21.656 HEAT: -111.7482
 CYCLE:    56 TIME:   0.031 TIME LEFT:  2.00D  GRAD.:     8.027 HEAT: -111.8520
 CYCLE:    57 TIME:   0.035 TIME LEFT:  2.00D  GRAD.:     7.693 HEAT: -111.9098
 CYCLE:    58 TIME:   0.027 TIME LEFT:  2.00D  GRAD.:     9.407 HEAT: -111.9693
 CYCLE:    59 TIME:   0.035 TIME LEFT:  2.00D  GRAD.:    15.976 HEAT: -112.0678
 CYCLE:    60 TIME:   0.031 TIME LEFT:  2.00D  GRAD.:    27.263 HEAT: -112.0731
 CYCLE:    61 TIME:   0.031 TIME LEFT:  2.00D  GRAD.:     7.153 HEAT: -112.2094
 CYCLE:    62 TIME:   0.031 TIME LEFT:  2.00D  GRAD.:     6.140 HEAT: -112.2402
 CYCLE:    63 TIME:   0.031 TIME LEFT:  2.00D  GRAD.:     8.226 HEAT: -112.3001
 CYCLE:    64 TIME:   0.035 TIME LEFT:  2.00D  GRAD.:    12.000 HEAT: -112.3579
 CYCLE:    65 TIME:   0.031 TIME LEFT:  2.00D  GRAD.:     6.585 HEAT: -112.4068
 CYCLE:    66 TIME:   0.031 TIME LEFT:  2.00D  GRAD.:     5.445 HEAT: -112.4334
 CYCLE:    67 TIME:   0.031 TIME LEFT:  2.00D  GRAD.:     6.929 HEAT: -112.4768
 CYCLE:    68 TIME:   0.031 TIME LEFT:  2.00D  GRAD.:    14.783 HEAT: -112.4749
 CYCLE:    69 TIME:   0.031 TIME LEFT:  2.00D  GRAD.:     4.379 HEAT: -112.5130
 CYCLE:    70 TIME:   0.031 TIME LEFT:  2.00D  GRAD.:     3.329 HEAT: -112.5229
 CYCLE:    71 TIME:   0.031 TIME LEFT:  2.00D  GRAD.:     4.005 HEAT: -112.5359
 CYCLE:    72 TIME:   0.031 TIME LEFT:  2.00D  GRAD.:     4.450 HEAT: -112.5517
 CYCLE:    73 TIME:   0.031 TIME LEFT:  2.00D  GRAD.:     7.744 HEAT: -112.5621
 CYCLE:    74 TIME:   0.031 TIME LEFT:  2.00D  GRAD.:     3.529 HEAT: -112.5775
 CYCLE:    75 TIME:   0.031 TIME LEFT:  2.00D  GRAD.:     3.019 HEAT: -112.5845
 CYCLE:    76 TIME:   0.031 TIME LEFT:  2.00D  GRAD.:     3.219 HEAT: -112.5945
 CYCLE:    77 TIME:   0.031 TIME LEFT:  2.00D  GRAD.:     9.975 HEAT: -112.5983
 CYCLE:    78 TIME:   0.031 TIME LEFT:  2.00D  GRAD.:     3.422 HEAT: -112.6142
 CYCLE:    79 TIME:   0.031 TIME LEFT:  2.00D  GRAD.:     2.235 HEAT: -112.6201
 CYCLE:    80 TIME:   0.031 TIME LEFT:  2.00D  GRAD.:     2.791 HEAT: -112.6262
 CYCLE:    81 TIME:   0.031 TIME LEFT:  2.00D  GRAD.:     3.358 HEAT: -112.6338
 CYCLE:    82 TIME:   0.035 TIME LEFT:  2.00D  GRAD.:     6.006 HEAT: -112.6351
 CYCLE:    83 TIME:   0.031 TIME LEFT:  2.00D  GRAD.:     1.761 HEAT: -112.6430
 CYCLE:    84 TIME:   0.031 TIME LEFT:  2.00D  GRAD.:     1.521 HEAT: -112.6450
 CYCLE:    85 TIME:   0.031 TIME LEFT:  2.00D  GRAD.:     1.638 HEAT: -112.6487
 CYCLE:    86 TIME:   0.031 TIME LEFT:  2.00D  GRAD.:     3.666 HEAT: -112.6535
 CYCLE:    87 TIME:   0.031 TIME LEFT:  2.00D  GRAD.:     2.723 HEAT: -112.6563
 CYCLE:    88 TIME:   0.031 TIME LEFT:  2.00D  GRAD.:     1.475 HEAT: -112.6584
 CYCLE:    89 TIME:   0.031 TIME LEFT:  2.00D  GRAD.:     1.190 HEAT: -112.6606
 CYCLE:    90 TIME:   0.035 TIME LEFT:  2.00D  GRAD.:     1.607 HEAT: -112.6635
 CYCLE:    91 TIME:   0.031 TIME LEFT:  2.00D  GRAD.:     3.958 HEAT: -112.6652
 CYCLE:    92 TIME:   0.031 TIME LEFT:  2.00D  GRAD.:     1.589 HEAT: -112.6689
 CYCLE:    93 TIME:   0.031 TIME LEFT:  2.00D  GRAD.:     1.425 HEAT: -112.6708
 CYCLE:    94 TIME:   0.031 TIME LEFT:  2.00D  GRAD.:     1.829 HEAT: -112.6737
 CYCLE:    95 TIME:   0.035 TIME LEFT:  2.00D  GRAD.:     5.127 HEAT: -112.6758
 CYCLE:    96 TIME:   0.031 TIME LEFT:  2.00D  GRAD.:     2.404 HEAT: -112.6809
 CYCLE:    97 TIME:   0.031 TIME LEFT:  2.00D  GRAD.:     1.878 HEAT: -112.6851
 CYCLE:    98 TIME:   0.035 TIME LEFT:  2.00D  GRAD.:     2.196 HEAT: -112.6888
 CYCLE:    99 TIME:   0.031 TIME LEFT:  2.00D  GRAD.:     2.202 HEAT: -112.6952
 CYCLE:   100 TIME:   0.035 TIME LEFT:  2.00D  GRAD.:     4.807 HEAT: -112.6975
 CYCLE:   101 TIME:   0.027 TIME LEFT:  2.00D  GRAD.:     5.299 HEAT: -112.7009
 CYCLE:   102 TIME:   0.031 TIME LEFT:  2.00D  GRAD.:     2.048 HEAT: -112.7060
 CYCLE:   103 TIME:   0.035 TIME LEFT:  2.00D  GRAD.:     2.180 HEAT: -112.7086
 CYCLE:   104 TIME:   0.031 TIME LEFT:  2.00D  GRAD.:     1.325 HEAT: -112.7112
 CYCLE:   105 TIME:   0.035 TIME LEFT:  2.00D  GRAD.:     2.806 HEAT: -112.7150
 CYCLE:   106 TIME:   0.031 TIME LEFT:  2.00D  GRAD.:     1.921 HEAT: -112.7176
 CYCLE:   107 TIME:   0.031 TIME LEFT:  2.00D  GRAD.:     1.532 HEAT: -112.7217
 CYCLE:   108 TIME:   0.031 TIME LEFT:  2.00D  GRAD.:     2.235 HEAT: -112.7246
 CYCLE:   109 TIME:   0.035 TIME LEFT:  2.00D  GRAD.:     2.491 HEAT: -112.7273
 CYCLE:   110 TIME:   0.031 TIME LEFT:  2.00D  GRAD.:     1.737 HEAT: -112.7312
 CYCLE:   111 TIME:   0.031 TIME LEFT:  2.00D  GRAD.:     2.252 HEAT: -112.7343
 CYCLE:   112 TIME:   0.031 TIME LEFT:  2.00D  GRAD.:     2.339 HEAT: -112.7384
 CYCLE:   113 TIME:   0.031 TIME LEFT:  2.00D  GRAD.:     2.338 HEAT: -112.7437
 CYCLE:   114 TIME:   0.031 TIME LEFT:  2.00D  GRAD.:     4.610 HEAT: -112.7475
 CYCLE:   115 TIME:   0.031 TIME LEFT:  2.00D  GRAD.:     1.892 HEAT: -112.7534
 CYCLE:   116 TIME:   0.035 TIME LEFT:  2.00D  GRAD.:     2.163 HEAT: -112.7564
 CYCLE:   117 TIME:   0.031 TIME LEFT:  2.00D  GRAD.:     2.173 HEAT: -112.7604
 CYCLE:   118 TIME:   0.035 TIME LEFT:  2.00D  GRAD.:     3.455 HEAT: -112.7681
 CYCLE:   119 TIME:   0.027 TIME LEFT:  2.00D  GRAD.:     3.860 HEAT: -112.7707
 CYCLE:   120 TIME:   0.035 TIME LEFT:  2.00D  GRAD.:     1.558 HEAT: -112.7745
 CYCLE:   121 TIME:   0.035 TIME LEFT:  2.00D  GRAD.:     1.199 HEAT: -112.7764
 CYCLE:   122 TIME:   0.031 TIME LEFT:  2.00D  GRAD.:     1.850 HEAT: -112.7788
 CYCLE:   123 TIME:   0.035 TIME LEFT:  2.00D  GRAD.:     2.367 HEAT: -112.7804
 CYCLE:   124 TIME:   0.027 TIME LEFT:  2.00D  GRAD.:     1.274 HEAT: -112.7817
 CYCLE:   125 TIME:   0.031 TIME LEFT:  2.00D  GRAD.:     1.173 HEAT: -112.7831
 CYCLE:   126 TIME:   0.031 TIME LEFT:  2.00D  GRAD.:     1.449 HEAT: -112.7843
 CYCLE:   127 TIME:   0.031 TIME LEFT:  2.00D  GRAD.:     2.151 HEAT: -112.7862
 CYCLE:   128 TIME:   0.031 TIME LEFT:  2.00D  GRAD.:     1.584 HEAT: -112.7883
 CYCLE:   129 TIME:   0.035 TIME LEFT:  2.00D  GRAD.:     1.316 HEAT: -112.7898
 CYCLE:   130 TIME:   0.031 TIME LEFT:  2.00D  GRAD.:     1.706 HEAT: -112.7918
 CYCLE:   131 TIME:   0.035 TIME LEFT:  2.00D  GRAD.:     2.299 HEAT: -112.7936
 CYCLE:   132 TIME:   0.027 TIME LEFT:  2.00D  GRAD.:     1.590 HEAT: -112.7957
 CYCLE:   133 TIME:   0.035 TIME LEFT:  2.00D  GRAD.:     1.605 HEAT: -112.7983
 CYCLE:   134 TIME:   0.031 TIME LEFT:  2.00D  GRAD.:     1.779 HEAT: -112.7996
 CYCLE:   135 TIME:   0.031 TIME LEFT:  2.00D  GRAD.:     1.434 HEAT: -112.8013
 CYCLE:   136 TIME:   0.031 TIME LEFT:  2.00D  GRAD.:     1.669 HEAT: -112.8041
 CYCLE:   137 TIME:   0.035 TIME LEFT:  2.00D  GRAD.:     2.407 HEAT: -112.8058
 CYCLE:   138 TIME:   0.031 TIME LEFT:  2.00D  GRAD.:     1.498 HEAT: -112.8075
 CYCLE:   139 TIME:   0.035 TIME LEFT:  2.00D  GRAD.:     1.484 HEAT: -112.8089
 CYCLE:   140 TIME:   0.031 TIME LEFT:  2.00D  GRAD.:     2.803 HEAT: -112.8118
 CYCLE:   141 TIME:   0.031 TIME LEFT:  2.00D  GRAD.:     2.024 HEAT: -112.8155
 CYCLE:   142 TIME:   0.031 TIME LEFT:  2.00D  GRAD.:     1.826 HEAT: -112.8185
 CYCLE:   143 TIME:   0.031 TIME LEFT:  2.00D  GRAD.:     2.402 HEAT: -112.8213
 CYCLE:   144 TIME:   0.035 TIME LEFT:  2.00D  GRAD.:     2.298 HEAT: -112.8243
 CYCLE:   145 TIME:   0.031 TIME LEFT:  2.00D  GRAD.:     2.400 HEAT: -112.8268
 CYCLE:   146 TIME:   0.031 TIME LEFT:  2.00D  GRAD.:     2.238 HEAT: -112.8294
 CYCLE:   147 TIME:   0.035 TIME LEFT:  2.00D  GRAD.:     4.834 HEAT: -112.8282
 CYCLE:   148 TIME:   0.031 TIME LEFT:  2.00D  GRAD.:    60.362 HEAT: -112.2414
 CYCLE:   149 TIME:   0.031 TIME LEFT:  2.00D  GRAD.:    19.222 HEAT: -112.7812
 CYCLE:   150 TIME:   0.031 TIME LEFT:  2.00D  GRAD.:    16.950 HEAT: -112.7961
 CYCLE:   151 TIME:   0.035 TIME LEFT:  2.00D  GRAD.:    12.848 HEAT: -112.8109
 CYCLE:   152 TIME:   0.031 TIME LEFT:  2.00D  GRAD.:     7.211 HEAT: -112.8156
 CYCLE:   153 TIME:   0.035 TIME LEFT:  2.00D  GRAD.:     5.136 HEAT: -112.8371
 CYCLE:   154 TIME:   0.031 TIME LEFT:  2.00D  GRAD.:     5.199 HEAT: -112.8386
 CYCLE:   155 TIME:   0.031 TIME LEFT:  2.00D  GRAD.:    27.315 HEAT: -112.6926
 CYCLE:   156 TIME:   0.039 TIME LEFT:  2.00D  GRAD.:     8.484 HEAT: -112.8332
 CYCLE:   157 TIME:   0.035 TIME LEFT:  2.00D  GRAD.:    53.708 HEAT: -112.2827
 CYCLE:   158 TIME:   0.039 TIME LEFT:  2.00D  GRAD.:    44.032 HEAT: -112.4886
 CYCLE:   159 TIME:   0.035 TIME LEFT:  2.00D  GRAD.:    12.641 HEAT: -112.7938
 CYCLE:   160 TIME:   0.035 TIME LEFT:  2.00D  GRAD.:    22.077 HEAT: -112.7679
 CYCLE:   161 TIME:   0.031 TIME LEFT:  2.00D  GRAD.:    51.394 HEAT: -112.3641
 CYCLE:   162 TIME:   0.039 TIME LEFT:  2.00D  GRAD.:    52.928 HEAT: -112.3701
 CYCLE:   163 TIME:   0.035 TIME LEFT:  2.00D  GRAD.:    68.308 HEAT: -112.0123
 CYCLE:   164 TIME:   0.035 TIME LEFT:  2.00D  GRAD.:   111.496 HEAT: -110.7339
 CYCLE:   165 TIME:   0.035 TIME LEFT:  2.00D  GRAD.:    50.950 HEAT: -112.2270
 CYCLE:   166 TIME:   0.035 TIME LEFT:  2.00D  GRAD.:    33.330 HEAT: -112.5735
 CYCLE:   167 TIME:   0.035 TIME LEFT:  2.00D  GRAD.:   103.812 HEAT: -110.8769
 CYCLE:   168 TIME:   0.035 TIME LEFT:  2.00D  GRAD.:    12.044 HEAT: -112.7884
 CYCLE:   169 TIME:   0.039 TIME LEFT:  2.00D  GRAD.:    19.356 HEAT: -112.7409
 CYCLE:   170 TIME:   0.035 TIME LEFT:  2.00D  GRAD.:     3.653 HEAT: -112.8385
 CYCLE:   171 TIME:   0.031 TIME LEFT:  2.00D  GRAD.:     4.397 HEAT: -112.8446
 CYCLE:   172 TIME:   0.035 TIME LEFT:  2.00D  GRAD.:     3.501 HEAT: -112.8490
 CYCLE:   173 TIME:   0.027 TIME LEFT:  2.00D  GRAD.:     2.606 HEAT: -112.8551
 CYCLE:   174 TIME:   0.035 TIME LEFT:  2.00D  GRAD.:     5.031 HEAT: -112.8563
 CYCLE:   175 TIME:   0.035 TIME LEFT:  2.00D  GRAD.:     2.622 HEAT: -112.8630
 CYCLE:   176 TIME:   0.035 TIME LEFT:  2.00D  GRAD.:     2.234 HEAT: -112.8632
 CYCLE:   177 TIME:   0.031 TIME LEFT:  2.00D  GRAD.:     1.567 HEAT: -112.8648
 CYCLE:   178 TIME:   0.035 TIME LEFT:  2.00D  GRAD.:     4.607 HEAT: -112.8658
 CYCLE:   179 TIME:   0.027 TIME LEFT:  2.00D  GRAD.:     1.812 HEAT: -112.8687
 CYCLE:   180 TIME:   0.035 TIME LEFT:  2.00D  GRAD.:     1.461 HEAT: -112.8693
 CYCLE:   181 TIME:   0.031 TIME LEFT:  2.00D  GRAD.:     1.230 HEAT: -112.8705
 CYCLE:   182 TIME:   0.035 TIME LEFT:  2.00D  GRAD.:     4.082 HEAT: -112.8681
 CYCLE:   183 TIME:   0.031 TIME LEFT:  2.00D  GRAD.:     1.175 HEAT: -112.8745
 CYCLE:   184 TIME:   0.031 TIME LEFT:  2.00D  GRAD.:     1.244 HEAT: -112.8750
 CYCLE:   185 TIME:   0.031 TIME LEFT:  2.00D  GRAD.:     0.897 HEAT: -112.8762

 -------------------------------------------------------------------------------
 PM7 CHARGE=0




     HERBERTS TEST WAS SATISFIED IN BFGS                      
     SCF FIELD WAS ACHIEVED                                   


                              PM7 CALCULATION
                                                       MOPAC v23.2.2 Linux
                                                       Wed Mar 18 11:58:55 2026




          FINAL HEAT OF FORMATION =       -112.87619 KCAL/MOL =    -472.27400 KJ/MOL


          COSMO AREA              =        412.88 SQUARE ANGSTROMS
          COSMO VOLUME            =        460.49 CUBIC ANGSTROMS

          GRADIENT NORM           =          0.89709          =       0.13524 PER ATOM
          IONIZATION POTENTIAL    =          8.863876 EV
          HOMO LUMO ENERGIES (EV) =         -8.864 -1.444
          NO. OF FILLED LEVELS    =         76
          MOLECULAR WEIGHT        =        453.5050         POINT GROUP:  C1  

          MOLECULAR DIMENSIONS (Angstroms)

            Atom       Atom       Distance
            H    36    H    34    17.74444
            H    31    O    26     7.52882
            H    37    H    35     3.81185


          SCF CALCULATIONS        =        186

          WALL-CLOCK TIME         =      6.133 SECONDS
          COMPUTATION TIME        =          2 MINUTES AND 26.953 SECONDS




   ATOM   CHEMICAL          X               Y               Z
  NUMBER   SYMBOL      (ANGSTROMS)     (ANGSTROMS)     (ANGSTROMS)

     1       N          1.27391996  *  -0.87210116  *   1.05361155  *
     2       N          1.86197487  *  -0.09557168  *  -1.14510871  *
     3       N          0.23340080  *  -1.56676945  *   3.06206943  *
     4       N          7.99178006  *   2.02597458  *  -0.36699241  *
     5       N         -8.40200703  *   1.36841985  *   0.03283552  *
     6       C         -1.10756921  *  -0.75536210  *   1.17863803  *
     7       C          0.10747395  *  -1.08232828  *   1.81192164  *
     8       C          0.97764696  *  -0.41067386  *  -0.15698596  *
     9       C          3.27341603  *  -0.06277586  *  -1.03894701  *
    10       C         -2.38204912  *  -0.87952747  *   1.80890244  *
    11       C         -3.58950205  *  -0.43119364  *   1.05978124  *
    12       C          3.96444068  *   0.39621776  *  -2.17933178  *
    13       C          5.34712160  *   0.51283679  *  -2.14285366  *
    14       C          6.05143100  *   0.18045638  *  -0.98459737  *
    15       C          5.36960075  *  -0.31560520  *   0.12459769  *
    16       C          3.98317905  *  -0.44098951  *   0.10517616  *
    17       C         -4.50744065  *  -1.38212078  *   0.62016875  *
    18       C         -5.64335651  *  -0.96860421  *  -0.07432248  *
    19       C         -5.85090269  *   0.38811741  *  -0.31570249  *
    20       C         -4.93295654  *   1.33685331  *   0.13224828  *
    21       C         -3.79748551  *   0.92726208  *   0.82861370  *
    22       O         -2.50307912  *  -1.33811736  *   2.93386136  *
    23       O          8.30297108  *   0.38022234  *  -2.27664428  *
    24       O          8.32801573  *  -0.44608549  *   0.11710497  *
    25       O         -7.85198512  *  -0.23567512  *  -1.86507202  *
    26       O         -6.95346016  *   2.12818060  *  -1.90908773  *
    27       S         -0.80789263  *  -0.20128594  *  -0.44185188  *
    28       S          7.78862421  *   0.39245136  *  -0.92722470  *
    29       S         -7.27184688  *   0.90904964  *  -1.20335838  *
    30       H          1.47835667  *   0.18468738  *  -2.05174602  *
    31       H          1.12821339  *  -1.78517291  *   3.45246014  *
    32       H         -0.60995276  *  -1.72845676  *   3.60687840  *
    33       H          8.41519596  *   2.14396147  *   0.53851070  *
    34       H          8.37631332  *   2.68435694  *  -1.02389979  *
    35       H         -8.63183309  *   2.34645203  *   0.09345918  *
    36       H         -9.23110050  *   0.80446034  *   0.12063999  *
    37       H          3.42587109  *   0.66339420  *  -3.08459009  *
    38       H          5.87500894  *   0.86380499  *  -3.03937846  *
    39       H          5.91197008  *  -0.62154391  *   1.02967505  *
    40       H          3.47101438  *  -0.83265172  *   0.98826092  *
    41       H         -4.34024247  *  -2.43946078  *   0.82491851  *
    42       H         -6.35783468  *  -1.72210398  *  -0.42704187  *
    43       H         -5.08152055  *   2.40433644  *  -0.06237122  *
    44       H         -3.08300209  *   1.66478901  *   1.19278361  *

                             CARTESIAN COORDINATES

   1    N        1.273919957    -0.872101164     1.053611550
   2    N        1.861974871    -0.095571676    -1.145108706
   3    N        0.233400799    -1.566769447     3.062069433
   4    N        7.991780062     2.025974576    -0.366992407
   5    N       -8.402007030     1.368419845     0.032835521
   6    C       -1.107569206    -0.755362102     1.178638028
   7    C        0.107473951    -1.082328280     1.811921643
   8    C        0.977646965    -0.410673863    -0.156985964
   9    C        3.273416031    -0.062775861    -1.038947011
  10    C       -2.382049122    -0.879527473     1.808902440
  11    C       -3.589502053    -0.431193638     1.059781238
  12    C        3.964440676     0.396217758    -2.179331781
  13    C        5.347121597     0.512836786    -2.142853664
  14    C        6.051431005     0.180456379    -0.984597371
  15    C        5.369600746    -0.315605203     0.124597690
  16    C        3.983179050    -0.440989514     0.105176157
  17    C       -4.507440650    -1.382120780     0.620168746
  18    C       -5.643356510    -0.968604206    -0.074322482
  19    C       -5.850902687     0.388117405    -0.315702493
  20    C       -4.932956541     1.336853305     0.132248279
  21    C       -3.797485513     0.927262076     0.828613704
  22    O       -2.503079118    -1.338117364     2.933861365
  23    O        8.302971080     0.380222343    -2.276644279
  24    O        8.328015733    -0.446085486     0.117104971
  25    O       -7.851985121    -0.235675121    -1.865072018
  26    O       -6.953460159     2.128180602    -1.909087734
  27    S       -0.807892627    -0.201285935    -0.441851878
  28    S        7.788624206     0.392451362    -0.927224701
  29    S       -7.271846884     0.909049645    -1.203358375
  30    H        1.478356667     0.184687382    -2.051746019
  31    H        1.128213393    -1.785172913     3.452460139
  32    H       -0.609952757    -1.728456757     3.606878404
  33    H        8.415195960     2.143961469     0.538510704
  34    H        8.376313323     2.684356943    -1.023899786
  35    H       -8.631833088     2.346452026     0.093459180
  36    H       -9.231100497     0.804460340     0.120639990
  37    H        3.425871094     0.663394198    -3.084590092
  38    H        5.875008943     0.863804989    -3.039378458
  39    H        5.911970078    -0.621543915     1.029675050
  40    H        3.471014385    -0.832651724     0.988260920
  41    H       -4.340242475    -2.439460784     0.824918507
  42    H       -6.357834682    -1.722103981    -0.427041866
  43    H       -5.081520550     2.404336438    -0.062371223
  44    H       -3.083002092     1.664789014     1.192783611


           Empirical Formula: C16 H15 N5 O5 S3  =    44 atoms



      MOLECULAR POINT GROUP   :   C1  


                  EIGENVALUES  
 -38.66617 -38.10267 -36.08907 -36.02672 -35.96776 -31.48250 -31.29391 -30.75957
 -29.41292 -29.36157 -28.51190 -27.97117 -27.88578 -26.84278 -26.75798 -26.47966
 -26.32468 -24.88388 -23.64854 -22.68561 -22.38649 -21.72917 -21.49331 -20.55838
 -19.88243 -19.73792 -19.68873 -18.79137 -18.06540 -17.65821 -17.15515 -17.07806
 -17.04988 -16.71872 -16.45823 -16.43483 -16.12747 -15.94873 -15.83760 -15.69024
 -15.63842 -15.49096 -15.19449 -15.09148 -14.90924 -14.80578 -14.50742 -14.13513
 -14.09929 -13.95557 -13.87828 -13.79868 -13.56670 -13.27237 -12.82571 -12.62629
 -12.53755 -12.43498 -12.37108 -11.81544 -11.75218 -11.70033 -11.63593 -11.61737
 -11.49921 -11.42997 -11.12827 -10.87666 -10.69120 -10.67348 -10.63625 -10.52164
 -10.42475 -10.36025  -9.82300  -8.86388  -1.44447  -1.10407  -0.80842  -0.57674
  -0.53234  -0.50658  -0.29194   0.08621   0.08965   0.26221   0.49889   0.67081
   0.72102   0.76176   1.05625   1.33670   1.57607   1.60530   1.78378   2.00085
   2.59272   2.60986   2.66819   2.76427   2.84717   2.93532   2.94187   3.13988
   3.24881   3.47093   3.58139   3.79959   3.91379   3.94056   4.07977   4.23411
   4.27382   4.29758   4.39623   4.45566   4.51223   4.55417   4.58593   4.66973
   4.67826   4.70824   4.72343   4.78860   4.93861   5.00386   5.07281   5.14293
   5.23297   5.29943   5.32173   5.36249   5.42035   5.46043   5.49403   5.58323
   5.70589   5.79491   5.90873   5.97891   6.03010   6.33807   6.34873   6.40825
   6.63751   6.70048


              NET ATOMIC CHARGES AND DIPOLE CONTRIBUTIONS

  ATOM NO.   TYPE          CHARGE      No. of ELECS.   s-Pop       p-Pop       d-Pop       
    1          N          -0.574138        5.5741     1.76800     3.80614
    2          N          -0.461463        5.4615     1.52007     3.94140
    3          N          -0.524569        5.5246     1.50968     4.01489
    4          N          -0.945588        5.9456     1.65640     4.28919
    5          N          -0.942226        5.9422     1.65531     4.28691
    6          C          -0.605704        4.6057     1.05740     3.54831
    7          C           0.508993        3.4910     1.05286     2.43815
    8          C           0.343853        3.6561     1.10946     2.54669
    9          C           0.248980        3.7510     1.06306     2.68796
   10          C           0.522251        3.4777     1.08373     2.39402
   11          C          -0.070352        4.0704     1.08464     2.98571
   12          C          -0.281996        4.2820     1.07601     3.20599
   13          C          -0.012605        4.0126     1.08935     2.92326
   14          C          -0.419914        4.4199     1.10686     3.31306
   15          C          -0.011121        4.0111     1.09217     2.91895
   16          C          -0.243905        4.2439     1.08433     3.15958
   17          C          -0.143323        4.1433     1.08330     3.06002
   18          C          -0.071160        4.0712     1.08995     2.98121
   19          C          -0.360321        4.3603     1.11166     3.24866
   20          C          -0.067416        4.0674     1.08819     2.97922
   21          C          -0.156019        4.1560     1.08234     3.07368
   22          O          -0.524344        6.5243     1.88183     4.64252
   23          O          -0.916972        6.9170     1.89275     5.02422
   24          O          -0.913484        6.9135     1.89277     5.02071
   25          O          -0.913696        6.9137     1.89264     5.02106
   26          O          -0.917149        6.9171     1.89269     5.02446
   27          S           0.172457        5.8275     1.89200     3.80562     0.12992
   28          S           2.359144        3.6409     1.16933     1.96830     0.50322
   29          S           2.345758        3.6542     1.17323     1.97510     0.50592
   30          H           0.331222        0.6688     0.66878
   31          H           0.321559        0.6784     0.67844
   32          H           0.352901        0.6471     0.64710
   33          H           0.294384        0.7056     0.70562
   34          H           0.293712        0.7063     0.70629
   35          H           0.294438        0.7056     0.70556
   36          H           0.295500        0.7045     0.70450
   37          H           0.159767        0.8402     0.84023
   38          H           0.174880        0.8251     0.82512
   39          H           0.177078        0.8229     0.82292
   40          H           0.205613        0.7944     0.79439
   41          H           0.165093        0.8349     0.83491
   42          H           0.177274        0.8227     0.82273
   43          H           0.170072        0.8299     0.82993
   44          H           0.162535        0.8375     0.83746
 DIPOLE           X         Y         Z       TOTAL
 POINT-CHG.     0.514     2.459     1.726     3.048
 HYBRID        -0.447     0.166     0.639     0.797
 SUM            0.067     2.625     2.365     3.534


          ATOMIC ORBITAL ELECTRON POPULATIONS

     Atom    s        px        py        pz      x^2-y^2     xz        z^2       yz        xy
    1  N   1.76800   1.31279   1.36447   1.12888
    2  N   1.52007   1.11752   1.62497   1.19890
    3  N   1.50968   1.22759   1.59564   1.19166
    4  N   1.65640   1.73654   1.30713   1.24551
    5  N   1.65531   1.38869   1.25370   1.64453
    6  C   1.05740   1.03987   1.45738   1.05105
    7  C   1.05286   0.84697   0.78758   0.80359
    8  C   1.10946   0.88068   0.83511   0.83089
    9  C   1.06306   0.77557   0.92775   0.98464
   10  C   1.08373   0.88519   0.69817   0.81066
   11  C   1.08464   1.00451   0.99969   0.98152
   12  C   1.07601   1.02879   1.11985   1.05735
   13  C   1.08935   0.98549   0.90917   1.02860
   14  C   1.10686   1.11375   1.15834   1.04096
   15  C   1.09217   0.99209   0.89865   1.02821
   16  C   1.08433   1.01426   1.07768   1.06764
   17  C   1.08330   0.98132   1.07765   1.00105
   18  C   1.08995   1.01538   1.01136   0.95446
   19  C   1.11166   1.10114   1.03000   1.11752
   20  C   1.08819   0.96156   1.07161   0.94605
   21  C   1.08234   1.03932   1.01863   1.01573
   22  O   1.88183   1.89406   1.45518   1.29327
   23  O   1.89275   1.78616   1.82038   1.41768
   24  O   1.89277   1.77963   1.67409   1.56700
   25  O   1.89264   1.76196   1.52603   1.73307
   26  O   1.89269   1.81324   1.48901   1.72221
   27  S   1.89200   0.90895   1.75668   1.13998   0.03186   0.00788   0.04493   0.02944   0.01582
   28  S   1.16933   0.70735   0.63161   0.62935   0.10286   0.09285   0.15567   0.11570   0.03615
   29  S   1.17323   0.69597   0.63878   0.64036   0.11820   0.10051   0.05856   0.11994   0.10871
   30  H   0.66878
   31  H   0.67844
   32  H   0.64710
   33  H   0.70562
   34  H   0.70629
   35  H   0.70556
   36  H   0.70450
   37  H   0.84023
   38  H   0.82512
   39  H   0.82292
   40  H   0.79439
   41  H   0.83491
   42  H   0.82273
   43  H   0.82993
   44  H   0.83746

 **********************
 *                    *
 * JOB ENDED NORMALLY *
 *                    *
 **********************



 TOTAL JOB TIME:             6.14 SECONDS

 == MOPAC DONE ==
