 *******************************************************************************
 **                                                                           **
 **                              MOPAC v23.2.2                                **
 **                                                                           **
 *******************************************************************************
 **          Digital Object Identifier (DOI): 10.5281/zenodo.6511958          **
 **    Visit the DOI location for information on how to cite this program.    **
 *******************************************************************************

                              PM7 CALCULATION RESULTS

 *******************************************************************************
 *  CALCULATION DONE: (MAX THREADS = 24)             Wed Mar 18 11:59:00 2026  *
 *  PM7        - The PM7 Hamiltonian to be used
 *
 *
 *
 *                 CHARGE ON SYSTEM = 0
 *
 *
 *
 *  T=         - A TIME OF 172800.0 SECONDS REQUESTED
 *  DUMP=N     - RESTART FILE WRITTEN EVERY 7200.0 SECONDS REQUESTED
 *******************************************************************************
PM7 CHARGE=0


   ATOM   CHEMICAL          X               Y               Z
  NUMBER   SYMBOL      (ANGSTROMS)     (ANGSTROMS)     (ANGSTROMS)

     1       N         -1.15620000  *  -0.24790000  *   1.49640000  *
     2       N         -1.92510000  *  -0.52020000  *  -0.75870000  *
     3       N          0.01600000  *  -0.12340000  *   3.48780000  *
     4       N         -7.84300000  *   2.33270000  *  -0.96780000  *
     5       N          8.40170000  *   0.55470000  *  -0.68090000  *
     6       C          1.13480000  *  -0.68550000  *   1.41880000  *
     7       C          0.02790000  *  -0.35490000  *   2.16640000  *
     8       C         -0.98980000  *  -0.51680000  *   0.22110000  *
     9       C         -3.29830000  *  -0.21950000  *  -0.68910000  *
    10       C          2.49130000  *  -0.89950000  *   1.87380000  *
    11       C          3.64160000  *  -0.67510000  *   0.95900000  *
    12       C         -4.06490000  *  -0.33780000  *  -1.86410000  *
    13       C         -5.43570000  *  -0.05890000  *  -1.87520000  *
    14       C         -6.06010000  *   0.35310000  *  -0.69950000  *
    15       C         -5.32950000  *   0.46580000  *   0.48220000  *
    16       C         -3.95780000  *   0.18420000  *   0.47930000  *
    17       C          3.73610000  *   0.48900000  *   0.18250000  *
    18       C          4.84060000  *   0.68310000  *  -0.65070000  *
    19       C          5.85410000  *  -0.27990000  *  -0.68660000  *
    20       C          5.77180000  *  -1.43920000  *   0.09190000  *
    21       C          4.66800000  *  -1.62970000  *   0.92490000  *
    22       O          2.76880000  *  -1.25890000  *   3.01920000  *
    23       O         -8.31320000  *   0.48270000  *   0.64400000  *
    24       O         -8.40180000  *   0.06670000  *  -1.85160000  *
    25       O          6.96220000  *   1.02860000  *  -2.66490000  *
    26       O          7.69740000  *  -1.35100000  *  -2.19870000  *
    27       S          0.64130000  *  -0.91770000  *  -0.20540000  *
    28       S         -7.79730000  *   0.67760000  *  -0.69050000  *
    29       S          7.25560000  *  -0.05220000  *  -1.75240000  *
    30       H         -1.60390000  *  -0.77660000  *  -1.68330000  *
    31       H         -0.88800000  *  -0.15680000  *   3.94820000  *
    32       H          0.76680000  *  -0.50940000  *   4.05960000  *
    33       H         -8.32390000  *   2.52290000  *  -1.84710000  *
    34       H         -8.25250000  *   2.80650000  *  -0.16220000  *
    35       H          8.64880000  *   1.50600000  *  -0.95980000  *
    36       H          8.11850000  *   0.50430000  *   0.29670000  *
    37       H         -3.59840000  *  -0.65660000  *  -2.79370000  *
    38       H         -6.00070000  *  -0.16740000  *  -2.79810000  *
    39       H         -5.81060000  *   0.76920000  *   1.40930000  *
    40       H         -3.42110000  *   0.28850000  *   1.41810000  *
    41       H          2.96350000  *   1.25430000  *   0.22590000  *
    42       H          4.90260000  *   1.58190000  *  -1.26190000  *
    43       H          6.55700000  *  -2.19280000  *   0.05260000  *
    44       H          4.60520000  *  -2.52410000  *   1.54300000  *



          CARTESIAN COORDINATES 

    NO.       ATOM           X           Y           Z

     1         N         -1.1562     -0.2479      1.4964
     2         N         -1.9251     -0.5202     -0.7587
     3         N          0.0160     -0.1234      3.4878
     4         N         -7.8430      2.3327     -0.9678
     5         N          8.4017      0.5547     -0.6809
     6         C          1.1348     -0.6855      1.4188
     7         C          0.0279     -0.3549      2.1664
     8         C         -0.9898     -0.5168      0.2211
     9         C         -3.2983     -0.2195     -0.6891
    10         C          2.4913     -0.8995      1.8738
    11         C          3.6416     -0.6751      0.9590
    12         C         -4.0649     -0.3378     -1.8641
    13         C         -5.4357     -0.0589     -1.8752
    14         C         -6.0601      0.3531     -0.6995
    15         C         -5.3295      0.4658      0.4822
    16         C         -3.9578      0.1842      0.4793
    17         C          3.7361      0.4890      0.1825
    18         C          4.8406      0.6831     -0.6507
    19         C          5.8541     -0.2799     -0.6866
    20         C          5.7718     -1.4392      0.0919
    21         C          4.6680     -1.6297      0.9249
    22         O          2.7688     -1.2589      3.0192
    23         O         -8.3132      0.4827      0.6440
    24         O         -8.4018      0.0667     -1.8516
    25         O          6.9622      1.0286     -2.6649
    26         O          7.6974     -1.3510     -2.1987
    27         S          0.6413     -0.9177     -0.2054
    28         S         -7.7973      0.6776     -0.6905
    29         S          7.2556     -0.0522     -1.7524
    30         H         -1.6039     -0.7766     -1.6833
    31         H         -0.8880     -0.1568      3.9482
    32         H          0.7668     -0.5094      4.0596
    33         H         -8.3239      2.5229     -1.8471
    34         H         -8.2525      2.8065     -0.1622
    35         H          8.6488      1.5060     -0.9598
    36         H          8.1185      0.5043      0.2967
    37         H         -3.5984     -0.6566     -2.7937
    38         H         -6.0007     -0.1674     -2.7981
    39         H         -5.8106      0.7692      1.4093
    40         H         -3.4211      0.2885      1.4181
    41         H          2.9635      1.2543      0.2259
    42         H          4.9026      1.5819     -1.2619
    43         H          6.5570     -2.1928      0.0526
    44         H          4.6052     -2.5241      1.5430

 General Reference for PM7:
 "Optimization of Parameters for Semiempirical Methods VI: More Modifications to the 
 NDDO Approximations and Re-optimization of Parameters", J. J. P. Stewart, J. Mol. Mod., 1:32, 19 (2013)
 https://link.springer.com/article/10.1007/s00894-012-1667-x

           Empirical Formula: C16 H15 N5 O5 S3  =    44 atoms



      MOLECULAR POINT GROUP   :   C1  


      RHF CALCULATION, NO. OF DOUBLY OCCUPIED LEVELS = 76


          Geometry optimization using L-BFGS
 CYCLE:     1 TIME:   0.078 TIME LEFT:  2.00D  GRAD.:   167.982 HEAT: -89.96455
 CYCLE:     2 TIME:   0.027 TIME LEFT:  2.00D  GRAD.:   165.039 HEAT: -90.24423
 CYCLE:     3 TIME:   0.039 TIME LEFT:  2.00D  GRAD.:    48.735 HEAT: -100.3456
 CYCLE:     4 TIME:   0.035 TIME LEFT:  2.00D  GRAD.:   165.277 HEAT: -90.24835
 CYCLE:     5 TIME:   0.035 TIME LEFT:  2.00D  GRAD.:    48.790 HEAT: -100.3466
 CYCLE:     6 TIME:   0.031 TIME LEFT:  2.00D  GRAD.:    45.109 HEAT: -101.7577
 CYCLE:     7 TIME:   0.035 TIME LEFT:  2.00D  GRAD.:    38.740 HEAT: -103.4921
 CYCLE:     8 TIME:   0.031 TIME LEFT:  2.00D  GRAD.:    63.741 HEAT: -104.5183
 CYCLE:     9 TIME:   0.035 TIME LEFT:  2.00D  GRAD.:    27.570 HEAT: -105.4405
 CYCLE:    10 TIME:   0.039 TIME LEFT:  2.00D  GRAD.:    17.598 HEAT: -105.8352
 CYCLE:    11 TIME:   0.035 TIME LEFT:  2.00D  GRAD.:    16.634 HEAT: -106.0749
 CYCLE:    12 TIME:   0.031 TIME LEFT:  2.00D  GRAD.:    32.132 HEAT: -106.3741
 CYCLE:    13 TIME:   0.035 TIME LEFT:  2.00D  GRAD.:    14.475 HEAT: -106.6603
 CYCLE:    14 TIME:   0.031 TIME LEFT:  2.00D  GRAD.:    11.778 HEAT: -106.7728
 CYCLE:    15 TIME:   0.031 TIME LEFT:  2.00D  GRAD.:    14.060 HEAT: -107.0111
 CYCLE:    16 TIME:   0.035 TIME LEFT:  2.00D  GRAD.:    29.656 HEAT: -107.1168
 CYCLE:    17 TIME:   0.027 TIME LEFT:  2.00D  GRAD.:    13.708 HEAT: -107.3105
 CYCLE:    18 TIME:   0.031 TIME LEFT:  2.00D  GRAD.:     9.199 HEAT: -107.4452
 CYCLE:    19 TIME:   0.035 TIME LEFT:  2.00D  GRAD.:     9.799 HEAT: -107.5331
 CYCLE:    20 TIME:   0.031 TIME LEFT:  2.00D  GRAD.:    13.573 HEAT: -107.7021
 CYCLE:    21 TIME:   0.035 TIME LEFT:  2.00D  GRAD.:    31.381 HEAT: -107.6741
 CYCLE:    22 TIME:   0.031 TIME LEFT:  2.00D  GRAD.:     7.272 HEAT: -107.8630
 CYCLE:    23 TIME:   0.031 TIME LEFT:  2.00D  GRAD.:     5.996 HEAT: -107.8931
 CYCLE:    24 TIME:   0.031 TIME LEFT:  2.00D  GRAD.:     8.655 HEAT: -107.9514
 CYCLE:    25 TIME:   0.031 TIME LEFT:  2.00D  GRAD.:    12.975 HEAT: -108.0178
 CYCLE:    26 TIME:   0.031 TIME LEFT:  2.00D  GRAD.:    10.257 HEAT: -108.0957
 CYCLE:    27 TIME:   0.031 TIME LEFT:  2.00D  GRAD.:    13.183 HEAT: -108.2477
 CYCLE:    28 TIME:   0.035 TIME LEFT:  2.00D  GRAD.:    22.812 HEAT: -108.3525
 CYCLE:    29 TIME:   0.035 TIME LEFT:  2.00D  GRAD.:    16.549 HEAT: -108.5102
 CYCLE:    30 TIME:   0.031 TIME LEFT:  2.00D  GRAD.:    15.572 HEAT: -108.8843
 CYCLE:    31 TIME:   0.035 TIME LEFT:  2.00D  GRAD.:    18.894 HEAT: -109.1259
 CYCLE:    32 TIME:   0.035 TIME LEFT:  2.00D  GRAD.:    66.429 HEAT: -108.4308
 CYCLE:    33 TIME:   0.035 TIME LEFT:  2.00D  GRAD.:    22.379 HEAT: -109.4884
 CYCLE:    34 TIME:   0.035 TIME LEFT:  2.00D  GRAD.:    51.930 HEAT: -109.0924
 CYCLE:    35 TIME:   0.035 TIME LEFT:  2.00D  GRAD.:     9.257 HEAT: -109.7328
 CYCLE:    36 TIME:   0.031 TIME LEFT:  2.00D  GRAD.:     9.418 HEAT: -109.8163
 CYCLE:    37 TIME:   0.031 TIME LEFT:  2.00D  GRAD.:    19.533 HEAT: -110.0255
 CYCLE:    38 TIME:   0.031 TIME LEFT:  2.00D  GRAD.:    18.522 HEAT: -110.1462
 CYCLE:    39 TIME:   0.031 TIME LEFT:  2.00D  GRAD.:     9.159 HEAT: -110.2305
 CYCLE:    40 TIME:   0.027 TIME LEFT:  2.00D  GRAD.:     9.643 HEAT: -110.3001
 CYCLE:    41 TIME:   0.035 TIME LEFT:  2.00D  GRAD.:    13.598 HEAT: -110.4208
 CYCLE:    42 TIME:   0.031 TIME LEFT:  2.00D  GRAD.:    19.290 HEAT: -110.5171
 CYCLE:    43 TIME:   0.031 TIME LEFT:  2.00D  GRAD.:     8.779 HEAT: -110.6128
 CYCLE:    44 TIME:   0.031 TIME LEFT:  2.00D  GRAD.:     6.809 HEAT: -110.6567
 CYCLE:    45 TIME:   0.031 TIME LEFT:  2.00D  GRAD.:     9.981 HEAT: -110.7217
 CYCLE:    46 TIME:   0.027 TIME LEFT:  2.00D  GRAD.:    12.445 HEAT: -110.7909
 CYCLE:    47 TIME:   0.035 TIME LEFT:  2.00D  GRAD.:    18.148 HEAT: -110.8907
 CYCLE:    48 TIME:   0.031 TIME LEFT:  2.00D  GRAD.:    13.406 HEAT: -111.0121
 CYCLE:    49 TIME:   0.027 TIME LEFT:  2.00D  GRAD.:    10.659 HEAT: -111.1241
 CYCLE:    50 TIME:   0.035 TIME LEFT:  2.00D  GRAD.:    14.325 HEAT: -111.2748
 CYCLE:    51 TIME:   0.031 TIME LEFT:  2.00D  GRAD.:    15.568 HEAT: -111.4197
 CYCLE:    52 TIME:   0.031 TIME LEFT:  2.00D  GRAD.:    15.564 HEAT: -111.5196
 CYCLE:    53 TIME:   0.031 TIME LEFT:  2.00D  GRAD.:     7.212 HEAT: -111.5939
 CYCLE:    54 TIME:   0.027 TIME LEFT:  2.00D  GRAD.:     7.160 HEAT: -111.6333
 CYCLE:    55 TIME:   0.031 TIME LEFT:  2.00D  GRAD.:     8.968 HEAT: -111.6878
 CYCLE:    56 TIME:   0.031 TIME LEFT:  2.00D  GRAD.:    18.678 HEAT: -111.7596
 CYCLE:    57 TIME:   0.035 TIME LEFT:  2.00D  GRAD.:    10.422 HEAT: -111.8589
 CYCLE:    58 TIME:   0.031 TIME LEFT:  2.00D  GRAD.:    12.552 HEAT: -111.9097
 CYCLE:    59 TIME:   0.031 TIME LEFT:  2.00D  GRAD.:     7.566 HEAT: -111.9611
 CYCLE:    60 TIME:   0.027 TIME LEFT:  2.00D  GRAD.:     6.615 HEAT: -111.9957
 CYCLE:    61 TIME:   0.031 TIME LEFT:  2.00D  GRAD.:     8.260 HEAT: -112.0421
 CYCLE:    62 TIME:   0.035 TIME LEFT:  2.00D  GRAD.:    20.583 HEAT: -112.0590
 CYCLE:    63 TIME:   0.027 TIME LEFT:  2.00D  GRAD.:     7.242 HEAT: -112.1387
 CYCLE:    64 TIME:   0.031 TIME LEFT:  2.00D  GRAD.:     5.704 HEAT: -112.1699
 CYCLE:    65 TIME:   0.027 TIME LEFT:  2.00D  GRAD.:     8.293 HEAT: -112.2249
 CYCLE:    66 TIME:   0.035 TIME LEFT:  2.00D  GRAD.:    10.546 HEAT: -112.2991
 CYCLE:    67 TIME:   0.031 TIME LEFT:  2.00D  GRAD.:    21.216 HEAT: -112.3194
 CYCLE:    68 TIME:   0.027 TIME LEFT:  2.00D  GRAD.:     6.472 HEAT: -112.4008
 CYCLE:    69 TIME:   0.031 TIME LEFT:  2.00D  GRAD.:     5.976 HEAT: -112.4250
 CYCLE:    70 TIME:   0.031 TIME LEFT:  2.00D  GRAD.:     5.985 HEAT: -112.4630
 CYCLE:    71 TIME:   0.027 TIME LEFT:  2.00D  GRAD.:     6.743 HEAT: -112.4926
 CYCLE:    72 TIME:   0.031 TIME LEFT:  2.00D  GRAD.:     4.264 HEAT: -112.5145
 CYCLE:    73 TIME:   0.031 TIME LEFT:  2.00D  GRAD.:     4.552 HEAT: -112.5318
 CYCLE:    74 TIME:   0.027 TIME LEFT:  2.00D  GRAD.:     4.758 HEAT: -112.5462
 CYCLE:    75 TIME:   0.031 TIME LEFT:  2.00D  GRAD.:     4.414 HEAT: -112.5643
 CYCLE:    76 TIME:   0.031 TIME LEFT:  2.00D  GRAD.:    10.726 HEAT: -112.5673
 CYCLE:    77 TIME:   0.031 TIME LEFT:  2.00D  GRAD.:     3.226 HEAT: -112.5884
 CYCLE:    78 TIME:   0.031 TIME LEFT:  2.00D  GRAD.:     2.622 HEAT: -112.5942
 CYCLE:    79 TIME:   0.027 TIME LEFT:  2.00D  GRAD.:     2.582 HEAT: -112.6036
 CYCLE:    80 TIME:   0.035 TIME LEFT:  2.00D  GRAD.:     8.973 HEAT: -112.6066
 CYCLE:    81 TIME:   0.027 TIME LEFT:  2.00D  GRAD.:     2.580 HEAT: -112.6214
 CYCLE:    82 TIME:   0.031 TIME LEFT:  2.00D  GRAD.:     1.791 HEAT: -112.6238
 CYCLE:    83 TIME:   0.027 TIME LEFT:  2.00D  GRAD.:     1.995 HEAT: -112.6286
 CYCLE:    84 TIME:   0.031 TIME LEFT:  2.00D  GRAD.:     3.369 HEAT: -112.6330
 CYCLE:    85 TIME:   0.031 TIME LEFT:  2.00D  GRAD.:     2.334 HEAT: -112.6377
 CYCLE:    86 TIME:   0.027 TIME LEFT:  2.00D  GRAD.:     1.789 HEAT: -112.6417
 CYCLE:    87 TIME:   0.035 TIME LEFT:  2.00D  GRAD.:     2.600 HEAT: -112.6477
 CYCLE:    88 TIME:   0.027 TIME LEFT:  2.00D  GRAD.:     3.317 HEAT: -112.6510
 CYCLE:    89 TIME:   0.031 TIME LEFT:  2.00D  GRAD.:     1.923 HEAT: -112.6539
 CYCLE:    90 TIME:   0.027 TIME LEFT:  2.00D  GRAD.:     1.370 HEAT: -112.6570
 CYCLE:    91 TIME:   0.031 TIME LEFT:  2.00D  GRAD.:     1.565 HEAT: -112.6587
 CYCLE:    92 TIME:   0.035 TIME LEFT:  2.00D  GRAD.:     1.917 HEAT: -112.6632
 CYCLE:    93 TIME:   0.031 TIME LEFT:  2.00D  GRAD.:     4.204 HEAT: -112.6660
 CYCLE:    94 TIME:   0.027 TIME LEFT:  2.00D  GRAD.:     2.145 HEAT: -112.6712
 CYCLE:    95 TIME:   0.031 TIME LEFT:  2.00D  GRAD.:     1.547 HEAT: -112.6750
 CYCLE:    96 TIME:   0.031 TIME LEFT:  2.00D  GRAD.:     2.230 HEAT: -112.6780
 CYCLE:    97 TIME:   0.031 TIME LEFT:  2.00D  GRAD.:     4.320 HEAT: -112.6813
 CYCLE:    98 TIME:   0.031 TIME LEFT:  2.00D  GRAD.:     2.493 HEAT: -112.6865
 CYCLE:    99 TIME:   0.027 TIME LEFT:  2.00D  GRAD.:     1.575 HEAT: -112.6913
 CYCLE:   100 TIME:   0.035 TIME LEFT:  2.00D  GRAD.:     2.162 HEAT: -112.6933
 CYCLE:   101 TIME:   0.027 TIME LEFT:  2.00D  GRAD.:     1.876 HEAT: -112.6967
 CYCLE:   102 TIME:   0.031 TIME LEFT:  2.00D  GRAD.:     3.236 HEAT: -112.7013
 CYCLE:   103 TIME:   0.031 TIME LEFT:  2.00D  GRAD.:     2.881 HEAT: -112.7040
 CYCLE:   104 TIME:   0.031 TIME LEFT:  2.00D  GRAD.:     1.527 HEAT: -112.7065
 CYCLE:   105 TIME:   0.027 TIME LEFT:  2.00D  GRAD.:     1.291 HEAT: -112.7087
 CYCLE:   106 TIME:   0.035 TIME LEFT:  2.00D  GRAD.:     1.650 HEAT: -112.7116
 CYCLE:   107 TIME:   0.031 TIME LEFT:  2.00D  GRAD.:     3.482 HEAT: -112.7153
 CYCLE:   108 TIME:   0.027 TIME LEFT:  2.00D  GRAD.:     2.314 HEAT: -112.7191
 CYCLE:   109 TIME:   0.031 TIME LEFT:  2.00D  GRAD.:     1.576 HEAT: -112.7218
 CYCLE:   110 TIME:   0.031 TIME LEFT:  2.00D  GRAD.:     1.856 HEAT: -112.7253
 CYCLE:   111 TIME:   0.031 TIME LEFT:  2.00D  GRAD.:     1.934 HEAT: -112.7276
 CYCLE:   112 TIME:   0.031 TIME LEFT:  2.00D  GRAD.:     1.534 HEAT: -112.7303
 CYCLE:   113 TIME:   0.035 TIME LEFT:  2.00D  GRAD.:     3.160 HEAT: -112.7317
 CYCLE:   114 TIME:   0.027 TIME LEFT:  2.00D  GRAD.:     1.404 HEAT: -112.7339
 CYCLE:   115 TIME:   0.031 TIME LEFT:  2.00D  GRAD.:     1.193 HEAT: -112.7352
 CYCLE:   116 TIME:   0.031 TIME LEFT:  2.00D  GRAD.:     1.430 HEAT: -112.7371
 CYCLE:   117 TIME:   0.031 TIME LEFT:  2.00D  GRAD.:     2.698 HEAT: -112.7396
 CYCLE:   118 TIME:   0.035 TIME LEFT:  2.00D  GRAD.:     2.064 HEAT: -112.7414
 CYCLE:   119 TIME:   0.027 TIME LEFT:  2.00D  GRAD.:     1.194 HEAT: -112.7431
 CYCLE:   120 TIME:   0.031 TIME LEFT:  2.00D  GRAD.:     1.291 HEAT: -112.7450
 CYCLE:   121 TIME:   0.031 TIME LEFT:  2.00D  GRAD.:     1.939 HEAT: -112.7464
 CYCLE:   122 TIME:   0.035 TIME LEFT:  2.00D  GRAD.:     1.839 HEAT: -112.7488
 CYCLE:   123 TIME:   0.031 TIME LEFT:  2.00D  GRAD.:     2.474 HEAT: -112.7515
 CYCLE:   124 TIME:   0.027 TIME LEFT:  2.00D  GRAD.:     1.921 HEAT: -112.7533
 CYCLE:   125 TIME:   0.031 TIME LEFT:  2.00D  GRAD.:     1.370 HEAT: -112.7550
 CYCLE:   126 TIME:   0.031 TIME LEFT:  2.00D  GRAD.:     1.401 HEAT: -112.7573
 CYCLE:   127 TIME:   0.035 TIME LEFT:  2.00D  GRAD.:     2.290 HEAT: -112.7596
 CYCLE:   128 TIME:   0.031 TIME LEFT:  2.00D  GRAD.:     1.477 HEAT: -112.7622
 CYCLE:   129 TIME:   0.031 TIME LEFT:  2.00D  GRAD.:     1.732 HEAT: -112.7640
 CYCLE:   130 TIME:   0.031 TIME LEFT:  2.00D  GRAD.:     1.414 HEAT: -112.7661
 CYCLE:   131 TIME:   0.031 TIME LEFT:  2.00D  GRAD.:     1.619 HEAT: -112.7681
 CYCLE:   132 TIME:   0.031 TIME LEFT:  2.00D  GRAD.:     2.761 HEAT: -112.7702
 CYCLE:   133 TIME:   0.031 TIME LEFT:  2.00D  GRAD.:     1.319 HEAT: -112.7728
 CYCLE:   134 TIME:   0.031 TIME LEFT:  2.00D  GRAD.:     1.565 HEAT: -112.7745
 CYCLE:   135 TIME:   0.031 TIME LEFT:  2.00D  GRAD.:     1.976 HEAT: -112.7773
 CYCLE:   136 TIME:   0.035 TIME LEFT:  2.00D  GRAD.:     3.260 HEAT: -112.7789
 CYCLE:   137 TIME:   0.031 TIME LEFT:  2.00D  GRAD.:     2.587 HEAT: -112.7818
 CYCLE:   138 TIME:   0.027 TIME LEFT:  2.00D  GRAD.:     1.823 HEAT: -112.7856
 CYCLE:   139 TIME:   0.039 TIME LEFT:  2.00D  GRAD.:     2.577 HEAT: -112.7899
 CYCLE:   140 TIME:   0.031 TIME LEFT:  2.00D  GRAD.:     2.524 HEAT: -112.7927
 CYCLE:   141 TIME:   0.031 TIME LEFT:  2.00D  GRAD.:     2.727 HEAT: -112.7948
 CYCLE:   142 TIME:   0.031 TIME LEFT:  2.00D  GRAD.:     2.877 HEAT: -112.7985
 CYCLE:   143 TIME:   0.031 TIME LEFT:  2.00D  GRAD.:     2.673 HEAT: -112.8035
 CYCLE:   144 TIME:   0.031 TIME LEFT:  2.00D  GRAD.:     2.515 HEAT: -112.8077
 CYCLE:   145 TIME:   0.031 TIME LEFT:  2.00D  GRAD.:     2.502 HEAT: -112.8115
 CYCLE:   146 TIME:   0.031 TIME LEFT:  2.00D  GRAD.:     2.442 HEAT: -112.8159
 CYCLE:   147 TIME:   0.035 TIME LEFT:  2.00D  GRAD.:     2.429 HEAT: -112.8179
 CYCLE:   148 TIME:   0.035 TIME LEFT:  2.00D  GRAD.:     5.365 HEAT: -112.8196
 CYCLE:   149 TIME:   0.027 TIME LEFT:  2.00D  GRAD.:     1.779 HEAT: -112.8262
 CYCLE:   150 TIME:   0.031 TIME LEFT:  2.00D  GRAD.:     1.331 HEAT: -112.8282
 CYCLE:   151 TIME:   0.035 TIME LEFT:  2.00D  GRAD.:     2.432 HEAT: -112.8314
 CYCLE:   152 TIME:   0.035 TIME LEFT:  2.00D  GRAD.:     2.737 HEAT: -112.8358
 CYCLE:   153 TIME:   0.031 TIME LEFT:  2.00D  GRAD.:     2.695 HEAT: -112.8422
 CYCLE:   154 TIME:   0.031 TIME LEFT:  2.00D  GRAD.:     4.180 HEAT: -112.8450
 CYCLE:   155 TIME:   0.031 TIME LEFT:  2.00D  GRAD.:     7.433 HEAT: -112.8448
 CYCLE:   156 TIME:   0.031 TIME LEFT:  2.00D  GRAD.:     2.865 HEAT: -112.8563
 CYCLE:   157 TIME:   0.027 TIME LEFT:  2.00D  GRAD.:     1.589 HEAT: -112.8591
 CYCLE:   158 TIME:   0.039 TIME LEFT:  2.00D  GRAD.:     1.560 HEAT: -112.8609
 CYCLE:   159 TIME:   0.035 TIME LEFT:  2.00D  GRAD.:     3.649 HEAT: -112.8654
 CYCLE:   160 TIME:   0.031 TIME LEFT:  2.00D  GRAD.:     2.381 HEAT: -112.8699
 CYCLE:   161 TIME:   0.035 TIME LEFT:  2.00D  GRAD.:     3.179 HEAT: -112.8701
 CYCLE:   162 TIME:   0.031 TIME LEFT:  2.00D  GRAD.:     9.952 HEAT: -112.8560
 CYCLE:   163 TIME:   0.027 TIME LEFT:  2.00D  GRAD.:     1.510 HEAT: -112.8766
 CYCLE:   164 TIME:   0.035 TIME LEFT:  2.00D  GRAD.:     1.387 HEAT: -112.8778
 CYCLE:   165 TIME:   0.035 TIME LEFT:  2.00D  GRAD.:     1.716 HEAT: -112.8802
 CYCLE:   166 TIME:   0.031 TIME LEFT:  2.00D  GRAD.:     2.791 HEAT: -112.8820
 CYCLE:   167 TIME:   0.035 TIME LEFT:  2.00D  GRAD.:     1.918 HEAT: -112.8836
 CYCLE:   168 TIME:   0.031 TIME LEFT:  2.00D  GRAD.:     1.768 HEAT: -112.8854
 CYCLE:   169 TIME:   0.031 TIME LEFT:  2.00D  GRAD.:     2.473 HEAT: -112.8882
 CYCLE:   170 TIME:   0.031 TIME LEFT:  2.00D  GRAD.:     2.621 HEAT: -112.8921
 CYCLE:   171 TIME:   0.027 TIME LEFT:  2.00D  GRAD.:     2.220 HEAT: -112.8950
 CYCLE:   172 TIME:   0.031 TIME LEFT:  2.00D  GRAD.:     1.408 HEAT: -112.8967
 CYCLE:   173 TIME:   0.031 TIME LEFT:  2.00D  GRAD.:     1.467 HEAT: -112.8980
 CYCLE:   174 TIME:   0.035 TIME LEFT:  2.00D  GRAD.:     1.830 HEAT: -112.8996
 CYCLE:   175 TIME:   0.031 TIME LEFT:  2.00D  GRAD.:     2.105 HEAT: -112.9008
 CYCLE:   176 TIME:   0.031 TIME LEFT:  2.00D  GRAD.:     4.119 HEAT: -112.9039
 CYCLE:   177 TIME:   0.031 TIME LEFT:  2.00D  GRAD.:     1.906 HEAT: -112.9081
 CYCLE:   178 TIME:   0.031 TIME LEFT:  2.00D  GRAD.:     1.601 HEAT: -112.9103
 CYCLE:   179 TIME:   0.035 TIME LEFT:  2.00D  GRAD.:     2.178 HEAT: -112.9118
 CYCLE:   180 TIME:   0.031 TIME LEFT:  2.00D  GRAD.:     2.761 HEAT: -112.9157
 CYCLE:   181 TIME:   0.031 TIME LEFT:  2.00D  GRAD.:     1.996 HEAT: -112.9193
 CYCLE:   182 TIME:   0.035 TIME LEFT:  2.00D  GRAD.:     2.200 HEAT: -112.9211
 CYCLE:   183 TIME:   0.031 TIME LEFT:  2.00D  GRAD.:     3.188 HEAT: -112.9266
 CYCLE:   184 TIME:   0.031 TIME LEFT:  2.00D  GRAD.:     2.347 HEAT: -112.9305
 CYCLE:   185 TIME:   0.031 TIME LEFT:  2.00D  GRAD.:     2.649 HEAT: -112.9316
 CYCLE:   186 TIME:   0.031 TIME LEFT:  2.00D  GRAD.:     5.978 HEAT: -112.9359
 CYCLE:   187 TIME:   0.027 TIME LEFT:  2.00D  GRAD.:     2.426 HEAT: -112.9445
 CYCLE:   188 TIME:   0.035 TIME LEFT:  2.00D  GRAD.:     2.325 HEAT: -112.9488
 CYCLE:   189 TIME:   0.031 TIME LEFT:  2.00D  GRAD.:     2.060 HEAT: -112.9528
 CYCLE:   190 TIME:   0.031 TIME LEFT:  2.00D  GRAD.:     2.700 HEAT: -112.9592
 CYCLE:   191 TIME:   0.035 TIME LEFT:  2.00D  GRAD.:    12.766 HEAT: -112.9330
 CYCLE:   192 TIME:   0.027 TIME LEFT:  2.00D  GRAD.:     2.677 HEAT: -112.9701
 CYCLE:   193 TIME:   0.031 TIME LEFT:  2.00D  GRAD.:     1.663 HEAT: -112.9734
 CYCLE:   194 TIME:   0.035 TIME LEFT:  2.00D  GRAD.:     1.663 HEAT: -112.9793
 CYCLE:   195 TIME:   0.035 TIME LEFT:  2.00D  GRAD.:     2.079 HEAT: -112.9862
 CYCLE:   196 TIME:   0.035 TIME LEFT:  2.00D  GRAD.:     9.145 HEAT: -112.9825
 CYCLE:   197 TIME:   0.031 TIME LEFT:  2.00D  GRAD.:     6.286 HEAT: -112.9862
 CYCLE:   198 TIME:   0.031 TIME LEFT:  2.00D  GRAD.:     3.820 HEAT: -112.9803
 CYCLE:   199 TIME:   0.031 TIME LEFT:  2.00D  GRAD.:     2.167 HEAT: -112.9972
 CYCLE:   200 TIME:   0.035 TIME LEFT:  2.00D  GRAD.:     3.348 HEAT: -112.9985
 CYCLE:   201 TIME:   0.031 TIME LEFT:  2.00D  GRAD.:    43.151 HEAT: -112.6227
 CYCLE:   202 TIME:   0.031 TIME LEFT:  2.00D  GRAD.:     1.870 HEAT: -113.0056
 CYCLE:   203 TIME:   0.035 TIME LEFT:  2.00D  GRAD.:     2.128 HEAT: -113.0098
 CYCLE:   204 TIME:   0.031 TIME LEFT:  2.00D  GRAD.:     1.801 HEAT: -113.0150
 CYCLE:   205 TIME:   0.039 TIME LEFT:  2.00D  GRAD.:     6.212 HEAT: -113.0039
 CYCLE:   206 TIME:   0.035 TIME LEFT:  2.00D  GRAD.:    22.681 HEAT: -112.9282
 CYCLE:   207 TIME:   0.031 TIME LEFT:  2.00D  GRAD.:    11.068 HEAT: -112.9970
 CYCLE:   208 TIME:   0.035 TIME LEFT:  2.00D  GRAD.:     4.145 HEAT: -113.0143
 CYCLE:   209 TIME:   0.031 TIME LEFT:  2.00D  GRAD.:     4.494 HEAT: -113.0270
 CYCLE:   210 TIME:   0.031 TIME LEFT:  2.00D  GRAD.:     1.366 HEAT: -113.0323
 CYCLE:   211 TIME:   0.035 TIME LEFT:  2.00D  GRAD.:     5.479 HEAT: -113.0234
 CYCLE:   212 TIME:   0.031 TIME LEFT:  2.00D  GRAD.:     2.793 HEAT: -113.0350
 CYCLE:   213 TIME:   0.031 TIME LEFT:  2.00D  GRAD.:     2.540 HEAT: -113.0367
 CYCLE:   214 TIME:   0.027 TIME LEFT:  2.00D  GRAD.:     1.455 HEAT: -113.0382
 CYCLE:   215 TIME:   0.035 TIME LEFT:  2.00D  GRAD.:     4.259 HEAT: -113.0387
 CYCLE:   216 TIME:   0.035 TIME LEFT:  2.00D  GRAD.:     1.998 HEAT: -113.0413
 CYCLE:   217 TIME:   0.031 TIME LEFT:  2.00D  GRAD.:     1.037 HEAT: -113.0440
 CYCLE:   218 TIME:   0.043 TIME LEFT:  2.00D  GRAD.:     4.033 HEAT: -113.0461
 CYCLE:   219 TIME:   0.027 TIME LEFT:  2.00D  GRAD.:     2.369 HEAT: -113.0487
 CYCLE:   220 TIME:   0.035 TIME LEFT:  2.00D  GRAD.:     1.714 HEAT: -113.0525
 CYCLE:   221 TIME:   0.035 TIME LEFT:  2.00D  GRAD.:     3.381 HEAT: -113.0534
 CYCLE:   222 TIME:   0.027 TIME LEFT:  2.00D  GRAD.:     2.553 HEAT: -113.0564
 CYCLE:   223 TIME:   0.035 TIME LEFT:  2.00D  GRAD.:     2.504 HEAT: -113.0617
 CYCLE:   224 TIME:   0.031 TIME LEFT:  2.00D  GRAD.:     2.311 HEAT: -113.0645
 CYCLE:   225 TIME:   0.031 TIME LEFT:  2.00D  GRAD.:     2.821 HEAT: -113.0664
 CYCLE:   226 TIME:   0.031 TIME LEFT:  2.00D  GRAD.:     2.192 HEAT: -113.0690
 CYCLE:   227 TIME:   0.031 TIME LEFT:  2.00D  GRAD.:     1.560 HEAT: -113.0709
 CYCLE:   228 TIME:   0.035 TIME LEFT:  2.00D  GRAD.:     2.607 HEAT: -113.0694
 CYCLE:   229 TIME:   0.031 TIME LEFT:  2.00D  GRAD.:     4.639 HEAT: -113.0719
 CYCLE:   230 TIME:   0.027 TIME LEFT:  2.00D  GRAD.:     1.256 HEAT: -113.0752
 CYCLE:   231 TIME:   0.031 TIME LEFT:  2.00D  GRAD.:     0.932 HEAT: -113.0756

 -------------------------------------------------------------------------------
 PM7 CHARGE=0




     HERBERTS TEST WAS SATISFIED IN BFGS                      
     SCF FIELD WAS ACHIEVED                                   


                              PM7 CALCULATION
                                                       MOPAC v23.2.2 Linux
                                                       Wed Mar 18 11:59:08 2026




          FINAL HEAT OF FORMATION =       -113.07563 KCAL/MOL =    -473.10845 KJ/MOL


          COSMO AREA              =        412.96 SQUARE ANGSTROMS
          COSMO VOLUME            =        460.43 CUBIC ANGSTROMS

          GRADIENT NORM           =          0.93232          =       0.14055 PER ATOM
          IONIZATION POTENTIAL    =          8.856877 EV
          HOMO LUMO ENERGIES (EV) =         -8.857 -1.435
          NO. OF FILLED LEVELS    =         76
          MOLECULAR WEIGHT        =        453.5050         POINT GROUP:  C1  

          MOLECULAR DIMENSIONS (Angstroms)

            Atom       Atom       Distance
            H    36    H    33    18.06939
            H    31    O    25     7.49537
            H    41    O    24     4.39393


          SCF CALCULATIONS        =        232

          WALL-CLOCK TIME         =      7.437 SECONDS
          COMPUTATION TIME        =          2 MINUTES AND 57.990 SECONDS




   ATOM   CHEMICAL          X               Y               Z
  NUMBER   SYMBOL      (ANGSTROMS)     (ANGSTROMS)     (ANGSTROMS)

     1       N         -1.22816127  *  -0.22359216  *   1.42815109  *
     2       N         -1.87512261  *  -0.12345248  *  -0.88646890  *
     3       N         -0.13263850  *  -0.35215012  *   3.52213688  *
     4       N         -8.11714284  *   1.99465289  *  -0.90396153  *
     5       N          8.53244785  *   0.11572924  *  -0.77420505  *
     6       C          1.15766178  *  -0.32456875  *   1.43965030  *
     7       C         -0.04059050  *  -0.30466274  *   2.17927596  *
     8       C         -0.96539390  *  -0.19758579  *   0.12541276  *
     9       C         -3.28273147  *  -0.03728430  *  -0.75705509  *
    10       C          2.45633063  *  -0.38027064  *   2.03025524  *
    11       C          3.63564793  *  -0.34443178  *   1.11861673  *
    12       C         -4.01842701  *  -0.15970193  *  -1.95359903  *
    13       C         -5.40253230  *  -0.05837096  *  -1.92196553  *
    14       C         -6.06369285  *   0.16761607  *  -0.71391603  *
    15       C         -5.33423219  *   0.27425067  *   0.46867416  *
    16       C         -3.94549259  *   0.17545827  *   0.45573906  *
    17       C          4.01958726  *   0.86245103  *   0.53731002  *
    18       C          5.10755989  *   0.88905697  *  -0.33321038  *
    19       C          5.80315128  *  -0.28707304  *  -0.60805273  *
    20       C          5.42680155  *  -1.48839752  *  -0.00958867  *
    21       C          4.33949917  *  -1.51850658  *   0.86230595  *
    22       O          2.61643160  *  -0.45303189  *   3.23737213  *
    23       O         -8.27175539  *  -0.00769914  *   0.65134769  *
    24       O         -8.34545225  *  -0.34824581  *  -1.85743433  *
    25       O          6.97455670  *   0.85512626  *  -2.63716131  *
    26       O          7.35609031  *  -1.61054320  *  -2.22224797  *
    27       S          0.81134146  *  -0.27211351  *  -0.26332531  *
    28       S         -7.80976041  *   0.29783573  *  -0.68218629  *
    29       S          7.14196459  *  -0.26579803  *  -1.74190869  *
    30       H         -1.52018195  *  -0.16749922  *  -1.84546465  *
    31       H         -1.01775220  *  -0.33838727  *   3.98839340  *
    32       H          0.72379731  *  -0.41851306  *   4.06549174  *
    33       H         -8.59512395  *   2.25858569  *  -1.74940468  *
    34       H         -8.49891303  *   2.49063535  *  -0.11576026  *
    35       H          8.99206988  *   0.98892695  *  -0.97405014  *
    36       H          9.20973614  *  -0.61830040  *  -0.64795316  *
    37       H         -3.51368216  *  -0.33884633  *  -2.89921999  *
    38       H         -5.96535398  *  -0.16962587  *  -2.85830309  *
    39       H         -5.84077700  *   0.42880535  *   1.43102166  *
    40       H         -3.39406423  *   0.26371211  *   1.39573595  *
    41       H          3.47335511  *   1.77770344  *   0.76106427  *
    42       H          5.39208314  *   1.83776935  *  -0.80131868  *
    43       H          5.96586063  *  -2.41887758  *  -0.22148629  *
    44       H          4.04229562  *  -2.45125789  *   1.34051209  *

                             CARTESIAN COORDINATES

   1    N       -1.228161270    -0.223592158     1.428151093
   2    N       -1.875122607    -0.123452479    -0.886468895
   3    N       -0.132638503    -0.352150116     3.522136883
   4    N       -8.117142836     1.994652887    -0.903961527
   5    N        8.532447850     0.115729237    -0.774205048
   6    C        1.157661784    -0.324568747     1.439650295
   7    C       -0.040590499    -0.304662741     2.179275964
   8    C       -0.965393903    -0.197585788     0.125412761
   9    C       -3.282731472    -0.037284298    -0.757055094
  10    C        2.456330631    -0.380270639     2.030255236
  11    C        3.635647932    -0.344431784     1.118616727
  12    C       -4.018427011    -0.159701930    -1.953599032
  13    C       -5.402532296    -0.058370962    -1.921965532
  14    C       -6.063692846     0.167616068    -0.713916029
  15    C       -5.334232189     0.274250674     0.468674156
  16    C       -3.945492589     0.175458269     0.455739062
  17    C        4.019587259     0.862451026     0.537310022
  18    C        5.107559894     0.889056974    -0.333210384
  19    C        5.803151281    -0.287073038    -0.608052733
  20    C        5.426801547    -1.488397517    -0.009588667
  21    C        4.339499168    -1.518506583     0.862305951
  22    O        2.616431596    -0.453031885     3.237372129
  23    O       -8.271755386    -0.007699139     0.651347690
  24    O       -8.345452248    -0.348245809    -1.857434326
  25    O        6.974556702     0.855126257    -2.637161308
  26    O        7.356090306    -1.610543196    -2.222247968
  27    S        0.811341458    -0.272113512    -0.263325305
  28    S       -7.809760409     0.297835734    -0.682186290
  29    S        7.141964589    -0.265798028    -1.741908692
  30    H       -1.520181953    -0.167499217    -1.845464651
  31    H       -1.017752202    -0.338387275     3.988393404
  32    H        0.723797309    -0.418513065     4.065491742
  33    H       -8.595123949     2.258585693    -1.749404676
  34    H       -8.498913028     2.490635346    -0.115760262
  35    H        8.992069879     0.988926954    -0.974050141
  36    H        9.209736140    -0.618300405    -0.647953161
  37    H       -3.513682158    -0.338846328    -2.899219992
  38    H       -5.965353977    -0.169625868    -2.858303091
  39    H       -5.840776996     0.428805347     1.431021662
  40    H       -3.394064231     0.263712111     1.395735953
  41    H        3.473355108     1.777703435     0.761064273
  42    H        5.392083143     1.837769346    -0.801318681
  43    H        5.965860630    -2.418877581    -0.221486287
  44    H        4.042295621    -2.451257889     1.340512087


           Empirical Formula: C16 H15 N5 O5 S3  =    44 atoms



      MOLECULAR POINT GROUP   :   C1  


                  EIGENVALUES  
 -38.65499 -38.09480 -36.07553 -36.03382 -35.96511 -31.48065 -31.29671 -30.76816
 -29.41323 -29.35949 -28.50736 -27.97216 -27.88368 -26.84042 -26.75855 -26.47727
 -26.32618 -24.87237 -23.64287 -22.68110 -22.37793 -21.71363 -21.50820 -20.56012
 -19.88361 -19.73663 -19.68467 -18.78611 -18.06082 -17.65244 -17.13850 -17.07853
 -17.06165 -16.71298 -16.46718 -16.43124 -16.12826 -15.96686 -15.82571 -15.68487
 -15.63957 -15.50495 -15.18862 -15.08452 -14.89387 -14.80280 -14.49787 -14.11463
 -14.09925 -13.95869 -13.87919 -13.81642 -13.55556 -13.27298 -12.81989 -12.62833
 -12.53232 -12.43735 -12.37080 -11.81484 -11.75061 -11.70006 -11.63415 -11.59514
 -11.50946 -11.43317 -11.12798 -10.86899 -10.69177 -10.66756 -10.64249 -10.50870
 -10.42322 -10.36269  -9.82561  -8.85688  -1.43451  -1.09540  -0.78004  -0.57749
  -0.52643  -0.50901  -0.29180   0.09425   0.09979   0.26276   0.50900   0.67975
   0.71322   0.76407   1.06417   1.35032   1.57909   1.60055   1.76641   2.00832
   2.60006   2.61412   2.68284   2.76253   2.83477   2.93663   2.93953   3.14125
   3.25551   3.48108   3.58086   3.80489   3.91505   3.94426   4.08050   4.23758
   4.27277   4.30356   4.39342   4.45821   4.50991   4.55597   4.59373   4.66760
   4.66967   4.70622   4.72621   4.79331   4.94323   5.00287   5.07265   5.14746
   5.23480   5.30380   5.32534   5.36451   5.41658   5.45728   5.49380   5.58640
   5.70767   5.79265   5.89228   5.97444   6.02907   6.33125   6.34831   6.40677
   6.63355   6.70077


              NET ATOMIC CHARGES AND DIPOLE CONTRIBUTIONS

  ATOM NO.   TYPE          CHARGE      No. of ELECS.   s-Pop       p-Pop       d-Pop       
    1          N          -0.573845        5.5738     1.76840     3.80545
    2          N          -0.461791        5.4618     1.52019     3.94160
    3          N          -0.524843        5.5248     1.50935     4.01549
    4          N          -0.944468        5.9445     1.65688     4.28759
    5          N          -0.940267        5.9403     1.65593     4.28434
    6          C          -0.606355        4.6064     1.05747     3.54888
    7          C           0.509283        3.4907     1.05285     2.43787
    8          C           0.343653        3.6563     1.10950     2.54684
    9          C           0.248684        3.7513     1.06302     2.68830
   10          C           0.521948        3.4781     1.08366     2.39440
   11          C          -0.068174        4.0682     1.08511     2.98307
   12          C          -0.281254        4.2813     1.07616     3.20510
   13          C          -0.012281        4.0123     1.08944     2.92284
   14          C          -0.419408        4.4194     1.10691     3.31250
   15          C          -0.011410        4.0114     1.09206     2.91935
   16          C          -0.242073        4.2421     1.08409     3.15798
   17          C          -0.156677        4.1567     1.08199     3.07468
   18          C          -0.065631        4.0656     1.08863     2.97700
   19          C          -0.362691        4.3627     1.11136     3.25133
   20          C          -0.068427        4.0684     1.08962     2.97881
   21          C          -0.147430        4.1474     1.08255     3.06488
   22          O          -0.520727        6.5207     1.88161     4.63912
   23          O          -0.914621        6.9146     1.89281     5.02181
   24          O          -0.915812        6.9158     1.89276     5.02305
   25          O          -0.916630        6.9166     1.89269     5.02394
   26          O          -0.916300        6.9163     1.89256     5.02374
   27          S           0.172153        5.8278     1.89203     3.80606     0.12976
   28          S           2.358246        3.6418     1.16957     1.96878     0.50340
   29          S           2.345195        3.6548     1.17344     1.97551     0.50585
   30          H           0.331273        0.6687     0.66873
   31          H           0.321842        0.6782     0.67816
   32          H           0.352000        0.6480     0.64800
   33          H           0.293753        0.7062     0.70625
   34          H           0.293780        0.7062     0.70622
   35          H           0.294698        0.7053     0.70530
   36          H           0.294815        0.7052     0.70518
   37          H           0.160107        0.8399     0.83989
   38          H           0.175250        0.8247     0.82475
   39          H           0.176541        0.8235     0.82346
   40          H           0.204060        0.7959     0.79594
   41          H           0.162371        0.8376     0.83763
   42          H           0.171865        0.8281     0.82813
   43          H           0.175270        0.8247     0.82473
   44          H           0.164329        0.8357     0.83567
 DIPOLE           X         Y         Z       TOTAL
 POINT-CHG.    -0.277     3.049     0.661     3.132
 HYBRID         0.449     0.099     0.520     0.694
 SUM            0.171     3.148     1.181     3.367


          ATOMIC ORBITAL ELECTRON POPULATIONS

     Atom    s        px        py        pz      x^2-y^2     xz        z^2       yz        xy
    1  N   1.76840   1.30643   1.40023   1.09879
    2  N   1.52019   1.11751   1.66709   1.15700
    3  N   1.50935   1.22712   1.66889   1.11947
    4  N   1.65688   1.70981   1.33718   1.24059
    5  N   1.65593   1.33251   1.24464   1.70718
    6  C   1.05747   1.03863   1.52045   0.98980
    7  C   1.05285   0.84565   0.78229   0.80993
    8  C   1.10950   0.87878   0.83439   0.83367
    9  C   1.06302   0.77548   0.92169   0.99112
   10  C   1.08366   0.88639   0.67231   0.83570
   11  C   1.08511   1.00068   1.00005   0.98233
   12  C   1.07616   1.02421   1.13086   1.05003
   13  C   1.08944   0.99014   0.88906   1.04363
   14  C   1.10691   1.11250   1.17413   1.02587
   15  C   1.09206   0.98837   0.88572   1.04527
   16  C   1.08409   1.01985   1.07142   1.06671
   17  C   1.08199   1.02352   1.04775   1.00341
   18  C   1.08863   0.96317   1.04483   0.96900
   19  C   1.11136   1.11129   1.02591   1.11413
   20  C   1.08962   0.98698   1.04032   0.95150
   21  C   1.08255   0.99497   1.05324   1.01668
   22  O   1.88161   1.89303   1.47786   1.26823
   23  O   1.89281   1.79666   1.80314   1.42201
   24  O   1.89276   1.78167   1.73639   1.50499
   25  O   1.89269   1.83053   1.53299   1.66042
   26  O   1.89256   1.82586   1.41882   1.77905
   27  S   1.89203   0.90170   1.84230   1.06205   0.03012   0.00952   0.04333   0.03029   0.01649
   28  S   1.16957   0.70992   0.62950   0.62936   0.10027   0.09653   0.17455   0.10138   0.03068
   29  S   1.17344   0.69231   0.62928   0.65392   0.13993   0.10230   0.06114   0.12298   0.07951
   30  H   0.66873
   31  H   0.67816
   32  H   0.64800
   33  H   0.70625
   34  H   0.70622
   35  H   0.70530
   36  H   0.70518
   37  H   0.83989
   38  H   0.82475
   39  H   0.82346
   40  H   0.79594
   41  H   0.83763
   42  H   0.82813
   43  H   0.82473
   44  H   0.83567

 **********************
 *                    *
 * JOB ENDED NORMALLY *
 *                    *
 **********************



 TOTAL JOB TIME:             7.44 SECONDS

 == MOPAC DONE ==
