 *******************************************************************************
 **                                                                           **
 **                              MOPAC v23.2.2                                **
 **                                                                           **
 *******************************************************************************
 **          Digital Object Identifier (DOI): 10.5281/zenodo.6511958          **
 **    Visit the DOI location for information on how to cite this program.    **
 *******************************************************************************

                              PM7 CALCULATION RESULTS

 *******************************************************************************
 *  CALCULATION DONE: (MAX THREADS = 24)             Wed Mar 18 11:58:08 2026  *
 *  PM7        - The PM7 Hamiltonian to be used
 *
 *
 *
 *                 CHARGE ON SYSTEM = 0
 *
 *
 *
 *  T=         - A TIME OF 172800.0 SECONDS REQUESTED
 *  DUMP=N     - RESTART FILE WRITTEN EVERY 7200.0 SECONDS REQUESTED
 *******************************************************************************
PM7 CHARGE=0


   ATOM   CHEMICAL          X               Y               Z
  NUMBER   SYMBOL      (ANGSTROMS)     (ANGSTROMS)     (ANGSTROMS)

     1       N          0.98030000  *   1.62120000  *   0.22870000  *
     2       N          1.85900000  *  -0.60930000  *   0.21800000  *
     3       N         -0.28940000  *   3.55250000  *   0.34750000  *
     4       N          8.35320000  *   0.36520000  *   0.37570000  *
     5       N         -6.75830000  *  -3.40300000  *  -0.02850000  *
     6       C         -1.30580000  *   1.37680000  *   0.62950000  *
     7       C         -0.23620000  *   2.21360000  *   0.40790000  *
     8       C          0.87510000  *   0.31530000  *   0.32790000  *
     9       C          3.21710000  *  -0.43630000  *  -0.10830000  *
    10       C         -2.68340000  *   1.73450000  *   0.89030000  *
    11       C         -3.78990000  *   0.81360000  *   0.51390000  *
    12       C          3.78840000  *   0.79010000  *  -0.47280000  *
    13       C          5.15240000  *   0.89910000  *  -0.76990000  *
    14       C          5.96880000  *  -0.22780000  *  -0.68940000  *
    15       C          5.42920000  *  -1.46300000  *  -0.33590000  *
    16       C          4.06460000  *  -1.55850000  *  -0.04320000  *
    17       C         -4.84670000  *   0.62990000  *   1.41690000  *
    18       C         -5.91070000  *  -0.21270000  *   1.08790000  *
    19       C         -5.91570000  *  -0.86490000  *  -0.14890000  *
    20       C         -4.88300000  *  -0.65970000  *  -1.07000000  *
    21       C         -3.81930000  *   0.18360000  *  -0.73870000  *
    22       O         -3.00980000  *   2.79830000  *   1.41920000  *
    23       O          8.21020000  *  -1.41470000  *  -1.36760000  *
    24       O          7.88080000  *   1.01690000  *  -1.98990000  *
    25       O         -7.35200000  *  -2.01790000  *  -2.02060000  *
    26       O         -8.42170000  *  -1.55710000  *   0.22900000  *
    27       S         -0.73320000  *  -0.23780000  *   0.66040000  *
    28       S          7.68450000  *  -0.09750000  *  -1.09280000  *
    29       S         -7.28030000  *  -1.90670000  *  -0.58290000  *
    30       H          1.58680000  *  -1.57320000  *   0.35990000  *
    31       H          0.58920000  *   4.05100000  *   0.44440000  *
    32       H         -1.07160000  *   4.03360000  *   0.79090000  *
    33       H          9.00220000  *  -0.35090000  *   0.70190000  *
    34       H          8.77010000  *   1.29240000  *   0.28890000  *
    35       H         -7.38590000  *  -3.73560000  *   0.70460000  *
    36       H         -6.67130000  *  -4.04920000  *  -0.81390000  *
    37       H          3.18350000  *   1.68970000  *  -0.54600000  *
    38       H          5.56030000  *   1.86440000  *  -1.06130000  *
    39       H          6.05530000  *  -2.35070000  *  -0.28370000  *
    40       H          3.66660000  *  -2.53060000  *   0.23960000  *
    41       H         -4.84510000  *   1.14780000  *   2.37480000  *
    42       H         -6.72910000  *  -0.34760000  *   1.79240000  *
    43       H         -4.90530000  *  -1.14190000  *  -2.04550000  *
    44       H         -3.03400000  *   0.35730000  *  -1.47150000  *



          CARTESIAN COORDINATES 

    NO.       ATOM           X           Y           Z

     1         N          0.9803      1.6212      0.2287
     2         N          1.8590     -0.6093      0.2180
     3         N         -0.2894      3.5525      0.3475
     4         N          8.3532      0.3652      0.3757
     5         N         -6.7583     -3.4030     -0.0285
     6         C         -1.3058      1.3768      0.6295
     7         C         -0.2362      2.2136      0.4079
     8         C          0.8751      0.3153      0.3279
     9         C          3.2171     -0.4363     -0.1083
    10         C         -2.6834      1.7345      0.8903
    11         C         -3.7899      0.8136      0.5139
    12         C          3.7884      0.7901     -0.4728
    13         C          5.1524      0.8991     -0.7699
    14         C          5.9688     -0.2278     -0.6894
    15         C          5.4292     -1.4630     -0.3359
    16         C          4.0646     -1.5585     -0.0432
    17         C         -4.8467      0.6299      1.4169
    18         C         -5.9107     -0.2127      1.0879
    19         C         -5.9157     -0.8649     -0.1489
    20         C         -4.8830     -0.6597     -1.0700
    21         C         -3.8193      0.1836     -0.7387
    22         O         -3.0098      2.7983      1.4192
    23         O          8.2102     -1.4147     -1.3676
    24         O          7.8808      1.0169     -1.9899
    25         O         -7.3520     -2.0179     -2.0206
    26         O         -8.4217     -1.5571      0.2290
    27         S         -0.7332     -0.2378      0.6604
    28         S          7.6845     -0.0975     -1.0928
    29         S         -7.2803     -1.9067     -0.5829
    30         H          1.5868     -1.5732      0.3599
    31         H          0.5892      4.0510      0.4444
    32         H         -1.0716      4.0336      0.7909
    33         H          9.0022     -0.3509      0.7019
    34         H          8.7701      1.2924      0.2889
    35         H         -7.3859     -3.7356      0.7046
    36         H         -6.6713     -4.0492     -0.8139
    37         H          3.1835      1.6897     -0.5460
    38         H          5.5603      1.8644     -1.0613
    39         H          6.0553     -2.3507     -0.2837
    40         H          3.6666     -2.5306      0.2396
    41         H         -4.8451      1.1478      2.3748
    42         H         -6.7291     -0.3476      1.7924
    43         H         -4.9053     -1.1419     -2.0455
    44         H         -3.0340      0.3573     -1.4715

 General Reference for PM7:
 "Optimization of Parameters for Semiempirical Methods VI: More Modifications to the 
 NDDO Approximations and Re-optimization of Parameters", J. J. P. Stewart, J. Mol. Mod., 1:32, 19 (2013)
 https://link.springer.com/article/10.1007/s00894-012-1667-x

           Empirical Formula: C16 H15 N5 O5 S3  =    44 atoms



      MOLECULAR POINT GROUP   :   C1  


      RHF CALCULATION, NO. OF DOUBLY OCCUPIED LEVELS = 76


          Geometry optimization using L-BFGS
 CYCLE:     1 TIME:   1.113 TIME LEFT:  2.00D  GRAD.:   168.317 HEAT: -93.42563
 CYCLE:     2 TIME:   0.230 TIME LEFT:  2.00D  GRAD.:   165.480 HEAT: -93.70655
 CYCLE:     3 TIME:   0.301 TIME LEFT:  2.00D  GRAD.:    48.976 HEAT: -104.1872
 CYCLE:     4 TIME:   0.301 TIME LEFT:  2.00D  GRAD.:   165.761 HEAT: -93.71143
 CYCLE:     5 TIME:   0.320 TIME LEFT:  2.00D  GRAD.:    49.055 HEAT: -104.1878
 CYCLE:     6 TIME:   0.266 TIME LEFT:  2.00D  GRAD.:    47.619 HEAT: -105.5703
 CYCLE:     7 TIME:   0.262 TIME LEFT:  2.00D  GRAD.:    38.133 HEAT: -107.1329
 CYCLE:     8 TIME:   0.246 TIME LEFT:  2.00D  GRAD.:    61.834 HEAT: -108.3027
 CYCLE:     9 TIME:   0.285 TIME LEFT:  2.00D  GRAD.:    29.055 HEAT: -109.1918
 CYCLE:    10 TIME:   0.203 TIME LEFT:  2.00D  GRAD.:    16.392 HEAT: -109.4929
 CYCLE:    11 TIME:   0.199 TIME LEFT:  2.00D  GRAD.:    13.695 HEAT: -109.7119
 CYCLE:    12 TIME:   0.262 TIME LEFT:  2.00D  GRAD.:    16.509 HEAT: -109.9784
 CYCLE:    13 TIME:   0.250 TIME LEFT:  2.00D  GRAD.:    27.937 HEAT: -110.0813
 CYCLE:    14 TIME:   0.203 TIME LEFT:  2.00D  GRAD.:     9.773 HEAT: -110.2582
 CYCLE:    15 TIME:   0.199 TIME LEFT:  2.00D  GRAD.:     8.805 HEAT: -110.3180
 CYCLE:    16 TIME:   0.219 TIME LEFT:  2.00D  GRAD.:    11.325 HEAT: -110.4348
 CYCLE:    17 TIME:   0.266 TIME LEFT:  2.00D  GRAD.:    14.727 HEAT: -110.5849
 CYCLE:    18 TIME:   0.258 TIME LEFT:  2.00D  GRAD.:    21.507 HEAT: -110.6545
 CYCLE:    19 TIME:   0.215 TIME LEFT:  2.00D  GRAD.:     8.292 HEAT: -110.7812
 CYCLE:    20 TIME:   0.199 TIME LEFT:  2.00D  GRAD.:     7.659 HEAT: -110.8426
 CYCLE:    21 TIME:   0.266 TIME LEFT:  2.00D  GRAD.:     9.618 HEAT: -110.9133
 CYCLE:    22 TIME:   0.258 TIME LEFT:  2.00D  GRAD.:    24.123 HEAT: -110.9456
 CYCLE:    23 TIME:   0.207 TIME LEFT:  2.00D  GRAD.:     7.695 HEAT: -111.0394
 CYCLE:    24 TIME:   0.203 TIME LEFT:  2.00D  GRAD.:     4.682 HEAT: -111.0647
 CYCLE:    25 TIME:   0.211 TIME LEFT:  2.00D  GRAD.:     5.530 HEAT: -111.0899
 CYCLE:    26 TIME:   0.219 TIME LEFT:  2.00D  GRAD.:     7.667 HEAT: -111.1287
 CYCLE:    27 TIME:   0.262 TIME LEFT:  2.00D  GRAD.:     6.469 HEAT: -111.1792
 CYCLE:    28 TIME:   0.246 TIME LEFT:  2.00D  GRAD.:    12.093 HEAT: -111.2067
 CYCLE:    29 TIME:   0.203 TIME LEFT:  2.00D  GRAD.:     5.660 HEAT: -111.2458
 CYCLE:    30 TIME:   0.203 TIME LEFT:  2.00D  GRAD.:     4.780 HEAT: -111.2704
 CYCLE:    31 TIME:   0.203 TIME LEFT:  2.00D  GRAD.:     5.390 HEAT: -111.2986
 CYCLE:    32 TIME:   0.246 TIME LEFT:  2.00D  GRAD.:    11.367 HEAT: -111.3290
 CYCLE:    33 TIME:   0.223 TIME LEFT:  2.00D  GRAD.:     6.013 HEAT: -111.3682
 CYCLE:    34 TIME:   0.207 TIME LEFT:  2.00D  GRAD.:     4.900 HEAT: -111.3975
 CYCLE:    35 TIME:   0.211 TIME LEFT:  2.00D  GRAD.:     5.901 HEAT: -111.4285
 CYCLE:    36 TIME:   0.207 TIME LEFT:  2.00D  GRAD.:    11.062 HEAT: -111.4454
 CYCLE:    37 TIME:   0.219 TIME LEFT:  2.00D  GRAD.:     5.496 HEAT: -111.4732
 CYCLE:    38 TIME:   0.215 TIME LEFT:  2.00D  GRAD.:     4.414 HEAT: -111.4979
 CYCLE:    39 TIME:   0.211 TIME LEFT:  2.00D  GRAD.:     5.571 HEAT: -111.5194
 CYCLE:    40 TIME:   0.266 TIME LEFT:  2.00D  GRAD.:     7.732 HEAT: -111.5579
 CYCLE:    41 TIME:   0.246 TIME LEFT:  2.00D  GRAD.:    10.697 HEAT: -111.5784
 CYCLE:    42 TIME:   0.223 TIME LEFT:  2.00D  GRAD.:     4.798 HEAT: -111.6101
 CYCLE:    43 TIME:   0.207 TIME LEFT:  2.00D  GRAD.:     4.597 HEAT: -111.6265
 CYCLE:    44 TIME:   0.215 TIME LEFT:  2.00D  GRAD.:     5.451 HEAT: -111.6552
 CYCLE:    45 TIME:   0.270 TIME LEFT:  2.00D  GRAD.:    13.376 HEAT: -111.6719
 CYCLE:    46 TIME:   0.207 TIME LEFT:  2.00D  GRAD.:     5.552 HEAT: -111.7087
 CYCLE:    47 TIME:   0.203 TIME LEFT:  2.00D  GRAD.:     4.742 HEAT: -111.7301
 CYCLE:    48 TIME:   0.211 TIME LEFT:  2.00D  GRAD.:     5.822 HEAT: -111.7555
 CYCLE:    49 TIME:   0.211 TIME LEFT:  2.00D  GRAD.:     7.116 HEAT: -111.7859
 CYCLE:    50 TIME:   0.023 TIME LEFT:  2.00D  GRAD.:    16.570 HEAT: -111.7870
 CYCLE:    51 TIME:   0.023 TIME LEFT:  2.00D  GRAD.:     9.744 HEAT: -111.8279
 CYCLE:    52 TIME:   0.027 TIME LEFT:  2.00D  GRAD.:     3.446 HEAT: -111.8550
 CYCLE:    53 TIME:   0.023 TIME LEFT:  2.00D  GRAD.:     3.528 HEAT: -111.8652
 CYCLE:    54 TIME:   0.027 TIME LEFT:  2.00D  GRAD.:     4.121 HEAT: -111.8768
 CYCLE:    55 TIME:   0.020 TIME LEFT:  2.00D  GRAD.:     8.649 HEAT: -111.8921
 CYCLE:    56 TIME:   0.023 TIME LEFT:  2.00D  GRAD.:     4.563 HEAT: -111.9131
 CYCLE:    57 TIME:   0.027 TIME LEFT:  2.00D  GRAD.:     3.403 HEAT: -111.9263
 CYCLE:    58 TIME:   0.023 TIME LEFT:  2.00D  GRAD.:     4.019 HEAT: -111.9366
 CYCLE:    59 TIME:   0.023 TIME LEFT:  2.00D  GRAD.:     7.517 HEAT: -111.9534
 CYCLE:    60 TIME:   0.023 TIME LEFT:  2.00D  GRAD.:     4.465 HEAT: -111.9725
 CYCLE:    61 TIME:   0.027 TIME LEFT:  2.00D  GRAD.:     3.940 HEAT: -111.9836
 CYCLE:    62 TIME:   0.023 TIME LEFT:  2.00D  GRAD.:     5.424 HEAT: -112.0019
 CYCLE:    63 TIME:   0.023 TIME LEFT:  2.00D  GRAD.:     6.886 HEAT: -112.0190
 CYCLE:    64 TIME:   0.023 TIME LEFT:  2.00D  GRAD.:     3.735 HEAT: -112.0378
 CYCLE:    65 TIME:   0.023 TIME LEFT:  2.00D  GRAD.:     3.535 HEAT: -112.0519
 CYCLE:    66 TIME:   0.027 TIME LEFT:  2.00D  GRAD.:     4.684 HEAT: -112.0657
 CYCLE:    67 TIME:   0.023 TIME LEFT:  2.00D  GRAD.:     5.266 HEAT: -112.0723
 CYCLE:    68 TIME:   0.023 TIME LEFT:  2.00D  GRAD.:     2.620 HEAT: -112.0804
 CYCLE:    69 TIME:   0.023 TIME LEFT:  2.00D  GRAD.:     2.347 HEAT: -112.0874
 CYCLE:    70 TIME:   0.023 TIME LEFT:  2.00D  GRAD.:     2.635 HEAT: -112.0927
 CYCLE:    71 TIME:   0.027 TIME LEFT:  2.00D  GRAD.:     5.181 HEAT: -112.1019
 CYCLE:    72 TIME:   0.023 TIME LEFT:  2.00D  GRAD.:     5.043 HEAT: -112.1080
 CYCLE:    73 TIME:   0.023 TIME LEFT:  2.00D  GRAD.:     2.117 HEAT: -112.1135
 CYCLE:    74 TIME:   0.023 TIME LEFT:  2.00D  GRAD.:     1.683 HEAT: -112.1169
 CYCLE:    75 TIME:   0.027 TIME LEFT:  2.00D  GRAD.:     2.520 HEAT: -112.1224
 CYCLE:    76 TIME:   0.023 TIME LEFT:  2.00D  GRAD.:     4.566 HEAT: -112.1298
 CYCLE:    77 TIME:   0.023 TIME LEFT:  2.00D  GRAD.:     3.001 HEAT: -112.1380
 CYCLE:    78 TIME:   0.023 TIME LEFT:  2.00D  GRAD.:     2.148 HEAT: -112.1437
 CYCLE:    79 TIME:   0.027 TIME LEFT:  2.00D  GRAD.:     3.426 HEAT: -112.1489
 CYCLE:    80 TIME:   0.023 TIME LEFT:  2.00D  GRAD.:     2.325 HEAT: -112.1530
 CYCLE:    81 TIME:   0.023 TIME LEFT:  2.00D  GRAD.:     2.421 HEAT: -112.1571
 CYCLE:    82 TIME:   0.023 TIME LEFT:  2.00D  GRAD.:     2.551 HEAT: -112.1635
 CYCLE:    83 TIME:   0.027 TIME LEFT:  2.00D  GRAD.:     3.465 HEAT: -112.1699
 CYCLE:    84 TIME:   0.023 TIME LEFT:  2.00D  GRAD.:     2.943 HEAT: -112.1759
 CYCLE:    85 TIME:   0.023 TIME LEFT:  2.00D  GRAD.:     1.647 HEAT: -112.1805
 CYCLE:    86 TIME:   0.023 TIME LEFT:  2.00D  GRAD.:     1.695 HEAT: -112.1840
 CYCLE:    87 TIME:   0.027 TIME LEFT:  2.00D  GRAD.:     2.616 HEAT: -112.1876
 CYCLE:    88 TIME:   0.023 TIME LEFT:  2.00D  GRAD.:     2.053 HEAT: -112.1918
 CYCLE:    89 TIME:   0.039 TIME LEFT:  2.00D  GRAD.:     1.790 HEAT: -112.1946
 CYCLE:    90 TIME:   0.020 TIME LEFT:  2.00D  GRAD.:     1.939 HEAT: -112.1972
 CYCLE:    91 TIME:   0.027 TIME LEFT:  2.00D  GRAD.:     3.162 HEAT: -112.2015
 CYCLE:    92 TIME:   0.023 TIME LEFT:  2.00D  GRAD.:     2.861 HEAT: -112.2063
 CYCLE:    93 TIME:   0.023 TIME LEFT:  2.00D  GRAD.:     1.809 HEAT: -112.2100
 CYCLE:    94 TIME:   0.027 TIME LEFT:  2.00D  GRAD.:     1.669 HEAT: -112.2132
 CYCLE:    95 TIME:   0.023 TIME LEFT:  2.00D  GRAD.:     2.123 HEAT: -112.2158
 CYCLE:    96 TIME:   0.023 TIME LEFT:  2.00D  GRAD.:     1.679 HEAT: -112.2192
 CYCLE:    97 TIME:   0.023 TIME LEFT:  2.00D  GRAD.:     2.074 HEAT: -112.2215
 CYCLE:    98 TIME:   0.023 TIME LEFT:  2.00D  GRAD.:     1.547 HEAT: -112.2238
 CYCLE:    99 TIME:   0.027 TIME LEFT:  2.00D  GRAD.:     2.089 HEAT: -112.2272
 CYCLE:   100 TIME:   0.023 TIME LEFT:  2.00D  GRAD.:     2.325 HEAT: -112.2293
 CYCLE:   101 TIME:   0.023 TIME LEFT:  2.00D  GRAD.:     1.787 HEAT: -112.2316
 CYCLE:   102 TIME:   0.023 TIME LEFT:  2.00D  GRAD.:     1.801 HEAT: -112.2360
 CYCLE:   103 TIME:   0.027 TIME LEFT:  2.00D  GRAD.:     3.244 HEAT: -112.2397
 CYCLE:   104 TIME:   0.023 TIME LEFT:  2.00D  GRAD.:     2.276 HEAT: -112.2440
 CYCLE:   105 TIME:   0.023 TIME LEFT:  2.00D  GRAD.:     1.797 HEAT: -112.2489
 CYCLE:   106 TIME:   0.027 TIME LEFT:  2.00D  GRAD.:     4.583 HEAT: -112.2508
 CYCLE:   107 TIME:   0.023 TIME LEFT:  2.00D  GRAD.:     2.067 HEAT: -112.2556
 CYCLE:   108 TIME:   0.023 TIME LEFT:  2.00D  GRAD.:     1.464 HEAT: -112.2585
 CYCLE:   109 TIME:   0.023 TIME LEFT:  2.00D  GRAD.:     1.540 HEAT: -112.2618
 CYCLE:   110 TIME:   0.027 TIME LEFT:  2.00D  GRAD.:     3.193 HEAT: -112.2649
 CYCLE:   111 TIME:   0.023 TIME LEFT:  2.00D  GRAD.:     2.145 HEAT: -112.2676
 CYCLE:   112 TIME:   0.023 TIME LEFT:  2.00D  GRAD.:     1.438 HEAT: -112.2693
 CYCLE:   113 TIME:   0.027 TIME LEFT:  2.00D  GRAD.:     1.548 HEAT: -112.2719
 CYCLE:   114 TIME:   0.023 TIME LEFT:  2.00D  GRAD.:     1.979 HEAT: -112.2741
 CYCLE:   115 TIME:   0.027 TIME LEFT:  2.00D  GRAD.:     1.615 HEAT: -112.2770
 CYCLE:   116 TIME:   0.023 TIME LEFT:  2.00D  GRAD.:     2.054 HEAT: -112.2799
 CYCLE:   117 TIME:   0.023 TIME LEFT:  2.00D  GRAD.:     1.979 HEAT: -112.2844
 CYCLE:   118 TIME:   0.027 TIME LEFT:  2.00D  GRAD.:     3.105 HEAT: -112.2894
 CYCLE:   119 TIME:   0.020 TIME LEFT:  2.00D  GRAD.:     2.711 HEAT: -112.2946
 CYCLE:   120 TIME:   0.027 TIME LEFT:  2.00D  GRAD.:     2.563 HEAT: -112.2993
 CYCLE:   121 TIME:   0.023 TIME LEFT:  2.00D  GRAD.:     3.164 HEAT: -112.3041
 CYCLE:   122 TIME:   0.027 TIME LEFT:  2.00D  GRAD.:     3.087 HEAT: -112.3096
 CYCLE:   123 TIME:   0.027 TIME LEFT:  2.00D  GRAD.:     3.420 HEAT: -112.3141
 CYCLE:   124 TIME:   0.023 TIME LEFT:  2.00D  GRAD.:     3.637 HEAT: -112.3195
 CYCLE:   125 TIME:   0.023 TIME LEFT:  2.00D  GRAD.:     5.330 HEAT: -112.3282
 CYCLE:   126 TIME:   0.027 TIME LEFT:  2.00D  GRAD.:     8.448 HEAT: -112.3265
 CYCLE:   127 TIME:   0.023 TIME LEFT:  2.00D  GRAD.:     4.685 HEAT: -112.3410
 CYCLE:   128 TIME:   0.023 TIME LEFT:  2.00D  GRAD.:     3.091 HEAT: -112.3460
 CYCLE:   129 TIME:   0.027 TIME LEFT:  2.00D  GRAD.:     4.656 HEAT: -112.3410
 CYCLE:   130 TIME:   0.027 TIME LEFT:  2.00D  GRAD.:     5.934 HEAT: -112.3508
 CYCLE:   131 TIME:   0.023 TIME LEFT:  2.00D  GRAD.:     8.763 HEAT: -112.3452
 CYCLE:   132 TIME:   0.023 TIME LEFT:  2.00D  GRAD.:     1.837 HEAT: -112.3604
 CYCLE:   133 TIME:   0.027 TIME LEFT:  2.00D  GRAD.:     1.856 HEAT: -112.3622
 CYCLE:   134 TIME:   0.027 TIME LEFT:  2.00D  GRAD.:     5.282 HEAT: -112.3647
 CYCLE:   135 TIME:   0.023 TIME LEFT:  2.00D  GRAD.:     2.520 HEAT: -112.3713
 CYCLE:   136 TIME:   0.023 TIME LEFT:  2.00D  GRAD.:     1.835 HEAT: -112.3750
 CYCLE:   137 TIME:   0.027 TIME LEFT:  2.00D  GRAD.:     1.954 HEAT: -112.3775
 CYCLE:   138 TIME:   0.027 TIME LEFT:  2.00D  GRAD.:     3.145 HEAT: -112.3805
 CYCLE:   139 TIME:   0.020 TIME LEFT:  2.00D  GRAD.:     2.953 HEAT: -112.3865
 CYCLE:   140 TIME:   0.027 TIME LEFT:  2.00D  GRAD.:     2.228 HEAT: -112.3918
 CYCLE:   141 TIME:   0.020 TIME LEFT:  2.00D  GRAD.:     2.961 HEAT: -112.3965
 CYCLE:   142 TIME:   0.027 TIME LEFT:  2.00D  GRAD.:     2.927 HEAT: -112.3996
 CYCLE:   143 TIME:   0.023 TIME LEFT:  2.00D  GRAD.:     1.911 HEAT: -112.4024
 CYCLE:   144 TIME:   0.023 TIME LEFT:  2.00D  GRAD.:     1.600 HEAT: -112.4063
 CYCLE:   145 TIME:   0.027 TIME LEFT:  2.00D  GRAD.:     3.024 HEAT: -112.4096
 CYCLE:   146 TIME:   0.023 TIME LEFT:  2.00D  GRAD.:     2.053 HEAT: -112.4132
 CYCLE:   147 TIME:   0.027 TIME LEFT:  2.00D  GRAD.:     1.777 HEAT: -112.4161
 CYCLE:   148 TIME:   0.027 TIME LEFT:  2.00D  GRAD.:     2.490 HEAT: -112.4206
 CYCLE:   149 TIME:   0.023 TIME LEFT:  2.00D  GRAD.:     3.694 HEAT: -112.4261
 CYCLE:   150 TIME:   0.027 TIME LEFT:  2.00D  GRAD.:     3.300 HEAT: -112.4329
 CYCLE:   151 TIME:   0.023 TIME LEFT:  2.00D  GRAD.:     4.351 HEAT: -112.4391
 CYCLE:   152 TIME:   0.023 TIME LEFT:  2.00D  GRAD.:     2.678 HEAT: -112.4487
 CYCLE:   153 TIME:   0.027 TIME LEFT:  2.00D  GRAD.:     4.696 HEAT: -112.4562
 CYCLE:   154 TIME:   0.027 TIME LEFT:  2.00D  GRAD.:     3.976 HEAT: -112.4643
 CYCLE:   155 TIME:   0.023 TIME LEFT:  2.00D  GRAD.:     1.956 HEAT: -112.4691
 CYCLE:   156 TIME:   0.023 TIME LEFT:  2.00D  GRAD.:     1.982 HEAT: -112.4724
 CYCLE:   157 TIME:   0.027 TIME LEFT:  2.00D  GRAD.:     3.345 HEAT: -112.4773
 CYCLE:   158 TIME:   0.027 TIME LEFT:  2.00D  GRAD.:     9.775 HEAT: -112.4751
 CYCLE:   159 TIME:   0.023 TIME LEFT:  2.00D  GRAD.:     2.513 HEAT: -112.4929
 CYCLE:   160 TIME:   0.027 TIME LEFT:  2.00D  GRAD.:     2.464 HEAT: -112.4976
 CYCLE:   161 TIME:   0.023 TIME LEFT:  2.00D  GRAD.:     2.220 HEAT: -112.5041
 CYCLE:   162 TIME:   0.027 TIME LEFT:  2.00D  GRAD.:     4.731 HEAT: -112.5103
 CYCLE:   163 TIME:   0.023 TIME LEFT:  2.00D  GRAD.:     5.492 HEAT: -112.5156
 CYCLE:   164 TIME:   0.023 TIME LEFT:  2.00D  GRAD.:     2.679 HEAT: -112.5233
 CYCLE:   165 TIME:   0.031 TIME LEFT:  2.00D  GRAD.:     2.031 HEAT: -112.5291
 CYCLE:   166 TIME:   0.027 TIME LEFT:  2.00D  GRAD.:     3.428 HEAT: -112.5370
 CYCLE:   167 TIME:   0.023 TIME LEFT:  2.00D  GRAD.:     4.116 HEAT: -112.5449
 CYCLE:   168 TIME:   0.027 TIME LEFT:  2.00D  GRAD.:    14.084 HEAT: -112.5208
 CYCLE:   169 TIME:   0.023 TIME LEFT:  2.00D  GRAD.:     2.489 HEAT: -112.5586
 CYCLE:   170 TIME:   0.023 TIME LEFT:  2.00D  GRAD.:     2.134 HEAT: -112.5624
 CYCLE:   171 TIME:   0.027 TIME LEFT:  2.00D  GRAD.:     3.368 HEAT: -112.5672
 CYCLE:   172 TIME:   0.023 TIME LEFT:  2.00D  GRAD.:     8.547 HEAT: -112.5674
 CYCLE:   173 TIME:   0.023 TIME LEFT:  2.00D  GRAD.:     2.393 HEAT: -112.5794
 CYCLE:   174 TIME:   0.027 TIME LEFT:  2.00D  GRAD.:     1.630 HEAT: -112.5826
 CYCLE:   175 TIME:   0.027 TIME LEFT:  2.00D  GRAD.:     2.767 HEAT: -112.5871
 CYCLE:   176 TIME:   0.023 TIME LEFT:  2.00D  GRAD.:     2.175 HEAT: -112.5931
 CYCLE:   177 TIME:   0.023 TIME LEFT:  2.00D  GRAD.:     4.309 HEAT: -112.5976
 CYCLE:   178 TIME:   0.027 TIME LEFT:  2.00D  GRAD.:     2.116 HEAT: -112.6025
 CYCLE:   179 TIME:   0.027 TIME LEFT:  2.00D  GRAD.:     2.275 HEAT: -112.6044
 CYCLE:   180 TIME:   0.023 TIME LEFT:  2.00D  GRAD.:     3.824 HEAT: -112.6080
 CYCLE:   181 TIME:   0.023 TIME LEFT:  2.00D  GRAD.:     1.882 HEAT: -112.6120
 CYCLE:   182 TIME:   0.027 TIME LEFT:  2.00D  GRAD.:     1.931 HEAT: -112.6140
 CYCLE:   183 TIME:   0.023 TIME LEFT:  2.00D  GRAD.:     1.691 HEAT: -112.6171
 CYCLE:   184 TIME:   0.027 TIME LEFT:  2.00D  GRAD.:     2.025 HEAT: -112.6205
 CYCLE:   185 TIME:   0.023 TIME LEFT:  2.00D  GRAD.:     2.965 HEAT: -112.6229
 CYCLE:   186 TIME:   0.023 TIME LEFT:  2.00D  GRAD.:     1.407 HEAT: -112.6254
 CYCLE:   187 TIME:   0.027 TIME LEFT:  2.00D  GRAD.:     1.261 HEAT: -112.6266
 CYCLE:   188 TIME:   0.027 TIME LEFT:  2.00D  GRAD.:     1.468 HEAT: -112.6281
 CYCLE:   189 TIME:   0.023 TIME LEFT:  2.00D  GRAD.:     2.912 HEAT: -112.6297
 CYCLE:   190 TIME:   0.023 TIME LEFT:  2.00D  GRAD.:     1.752 HEAT: -112.6321
 CYCLE:   191 TIME:   0.023 TIME LEFT:  2.00D  GRAD.:     1.491 HEAT: -112.6350
 CYCLE:   192 TIME:   0.027 TIME LEFT:  2.00D  GRAD.:     1.734 HEAT: -112.6371
 CYCLE:   193 TIME:   0.027 TIME LEFT:  2.00D  GRAD.:     3.890 HEAT: -112.6390
 CYCLE:   194 TIME:   0.023 TIME LEFT:  2.00D  GRAD.:     1.528 HEAT: -112.6428
 CYCLE:   195 TIME:   0.023 TIME LEFT:  2.00D  GRAD.:     1.175 HEAT: -112.6443
 CYCLE:   196 TIME:   0.027 TIME LEFT:  2.00D  GRAD.:     1.265 HEAT: -112.6462
 CYCLE:   197 TIME:   0.027 TIME LEFT:  2.00D  GRAD.:     2.876 HEAT: -112.6490
 CYCLE:   198 TIME:   0.023 TIME LEFT:  2.00D  GRAD.:     2.663 HEAT: -112.6509
 CYCLE:   199 TIME:   0.023 TIME LEFT:  2.00D  GRAD.:     1.442 HEAT: -112.6527
 CYCLE:   200 TIME:   0.023 TIME LEFT:  2.00D  GRAD.:     1.060 HEAT: -112.6545
 CYCLE:   201 TIME:   0.027 TIME LEFT:  2.00D  GRAD.:     1.223 HEAT: -112.6556
 CYCLE:   202 TIME:   0.027 TIME LEFT:  2.00D  GRAD.:     3.838 HEAT: -112.6559
 CYCLE:   203 TIME:   0.023 TIME LEFT:  2.00D  GRAD.:     1.377 HEAT: -112.6588
 CYCLE:   204 TIME:   0.023 TIME LEFT:  2.00D  GRAD.:     1.037 HEAT: -112.6599
 CYCLE:   205 TIME:   0.027 TIME LEFT:  2.00D  GRAD.:     1.315 HEAT: -112.6611
 CYCLE:   206 TIME:   0.027 TIME LEFT:  2.00D  GRAD.:     1.804 HEAT: -112.6632
 CYCLE:   207 TIME:   0.023 TIME LEFT:  2.00D  GRAD.:     6.438 HEAT: -112.6586
 CYCLE:   208 TIME:   0.023 TIME LEFT:  2.00D  GRAD.:     1.108 HEAT: -112.6654
 CYCLE:   209 TIME:   0.027 TIME LEFT:  2.00D  GRAD.:     0.719 HEAT: -112.6658

 -------------------------------------------------------------------------------
 PM7 CHARGE=0




     HERBERTS TEST WAS SATISFIED IN BFGS                      
     SCF FIELD WAS ACHIEVED                                   


                              PM7 CALCULATION
                                                       MOPAC v23.2.2 Linux
                                                       Wed Mar 18 11:58:24 2026




          FINAL HEAT OF FORMATION =       -112.66583 KCAL/MOL =    -471.39382 KJ/MOL


          COSMO AREA              =        412.65 SQUARE ANGSTROMS
          COSMO VOLUME            =        461.64 CUBIC ANGSTROMS

          GRADIENT NORM           =          0.71895          =       0.10839 PER ATOM
          IONIZATION POTENTIAL    =          8.891186 EV
          HOMO LUMO ENERGIES (EV) =         -8.891 -1.453
          NO. OF FILLED LEVELS    =         76
          MOLECULAR WEIGHT        =        453.5050         POINT GROUP:  C1  

          MOLECULAR DIMENSIONS (Angstroms)

            Atom       Atom       Distance
            H    34    O    26    17.00170
            H    39    H    32     7.56532
            H    42    H    43     4.25622


          SCF CALCULATIONS        =        210

          WALL-CLOCK TIME         =     16.289 SECONDS
          COMPUTATION TIME        =          6 MINUTES AND 18.398 SECONDS




   ATOM   CHEMICAL          X               Y               Z
  NUMBER   SYMBOL      (ANGSTROMS)     (ANGSTROMS)     (ANGSTROMS)

     1       N          1.03571724  *   1.51301756  *   0.05538802  *
     2       N          1.79503487  *  -0.71594111  *  -0.41728048  *
     3       N         -0.15769810  *   3.50239731  *   0.52218044  *
     4       N          8.15534770  *   0.31116506  *   0.97445806  *
     5       N         -6.55068912  *  -3.50118654  *   0.17931286  *
     6       C         -1.34329055  *   1.38009291  *   0.21740298  *
     7       C         -0.18415096  *   2.17827254  *   0.27854386  *
     8       C          0.83524733  *   0.21815026  *  -0.16885819  *
     9       C          3.19170508  *  -0.48160467  *  -0.47545659  *
    10       C         -2.66352250  *   1.88695051  *   0.41369544  *
    11       C         -3.80724492  *   0.94054656  *   0.28024051  *
    12       C          3.75639899  *   0.78479374  *  -0.65766715  *
    13       C          5.14123181  *   0.91298002  *  -0.72124802  *
    14       C          5.96064063  *  -0.20774439  *  -0.60216450  *
    15       C          5.39505611  *  -1.47282894  *  -0.43866812  *
    16       C          4.01585331  *  -1.61945103  *  -0.37500525  *
    17       C         -4.47265703  *   0.50745671  *   1.42479069  *
    18       C         -5.54250382  *  -0.37789399  *   1.30220248  *
    19       C         -5.93381122  *  -0.82058699  *   0.03985856  *
    20       C         -5.28015623  *  -0.36567948  *  -1.10426917  *
    21       C         -4.21122952  *   0.52060364  *  -0.98534413  *
    22       O         -2.87060903  *   3.05836206  *   0.68506408  *
    23       O          8.27922504  *  -1.32492380  *  -0.96713557  *
    24       O          8.02574892  *   1.15488144  *  -1.41713624  *
    25       O         -7.69427658  *  -1.97165864  *  -1.49749120  *
    26       O         -8.19401536  *  -1.73862218  *   0.97248710  *
    27       S         -0.91643583  *  -0.27168660  *  -0.11883202  *
    28       S          7.70207683  *  -0.03534373  *  -0.66708828  *
    29       S         -7.27123008  *  -1.94525308  *  -0.11724202  *
    30       H          1.50138030  *  -1.69108154  *  -0.50576266  *
    31       H          0.70224979  *   4.01211504  *   0.55918326  *
    32       H         -1.03841887  *   3.98208198  *   0.69093480  *
    33       H          8.68073593  *  -0.39873847  *   1.45697038  *
    34       H          8.54707645  *   1.22137545  *   1.15134864  *
    35       H         -6.85967503  *  -3.98846676  *   1.00442414  *
    36       H         -6.50712968  *  -4.13246851  *  -0.60329463  *
    37       H          3.12944793  *   1.67543440  *  -0.74978859  *
    38       H          5.56981670  *   1.91190270  *  -0.87711217  *
    39       H          6.02893138  *  -2.36672944  *  -0.36502707  *
    40       H          3.58364040  *  -2.60719640  *  -0.24049258  *
    41       H         -4.16426505  *   0.86613323  *   2.40621812  *
    42       H         -6.07065346  *  -0.70338776  *   2.20506819  *
    43       H         -5.59812725  *  -0.68645092  *  -2.10347018  *
    44       H         -3.70137229  *   0.88709240  *  -1.87548098  *

                             CARTESIAN COORDINATES

   1    N        1.035717240     1.513017564     0.055388021
   2    N        1.795034869    -0.715941113    -0.417280482
   3    N       -0.157698099     3.502397312     0.522180436
   4    N        8.155347702     0.311165059     0.974458065
   5    N       -6.550689124    -3.501186535     0.179312863
   6    C       -1.343290554     1.380092908     0.217402983
   7    C       -0.184150958     2.178272544     0.278543858
   8    C        0.835247326     0.218150255    -0.168858189
   9    C        3.191705079    -0.481604665    -0.475456586
  10    C       -2.663522499     1.886950509     0.413695439
  11    C       -3.807244918     0.940546560     0.280240506
  12    C        3.756398992     0.784793737    -0.657667145
  13    C        5.141231814     0.912980019    -0.721248023
  14    C        5.960640626    -0.207744389    -0.602164501
  15    C        5.395056106    -1.472828936    -0.438668124
  16    C        4.015853309    -1.619451030    -0.375005252
  17    C       -4.472657033     0.507456710     1.424790688
  18    C       -5.542503821    -0.377893985     1.302202482
  19    C       -5.933811218    -0.820586986     0.039858558
  20    C       -5.280156227    -0.365679476    -1.104269169
  21    C       -4.211229522     0.520603638    -0.985344132
  22    O       -2.870609029     3.058362061     0.685064085
  23    O        8.279225045    -1.324923796    -0.967135566
  24    O        8.025748919     1.154881441    -1.417136238
  25    O       -7.694276581    -1.971658644    -1.497491196
  26    O       -8.194015361    -1.738622184     0.972487103
  27    S       -0.916435832    -0.271686599    -0.118832016
  28    S        7.702076826    -0.035343731    -0.667088283
  29    S       -7.271230083    -1.945253081    -0.117242017
  30    H        1.501380296    -1.691081539    -0.505762656
  31    H        0.702249788     4.012115039     0.559183261
  32    H       -1.038418866     3.982081976     0.690934799
  33    H        8.680735931    -0.398738467     1.456970380
  34    H        8.547076454     1.221375447     1.151348644
  35    H       -6.859675028    -3.988466759     1.004424142
  36    H       -6.507129682    -4.132468512    -0.603294634
  37    H        3.129447935     1.675434404    -0.749788586
  38    H        5.569816704     1.911902701    -0.877112170
  39    H        6.028931384    -2.366729438    -0.365027071
  40    H        3.583640398    -2.607196403    -0.240492576
  41    H       -4.164265051     0.866133232     2.406218121
  42    H       -6.070653456    -0.703387760     2.205068188
  43    H       -5.598127246    -0.686450922    -2.103470185
  44    H       -3.701372289     0.887092403    -1.875480984


           Empirical Formula: C16 H15 N5 O5 S3  =    44 atoms



      MOLECULAR POINT GROUP   :   C1  


                  EIGENVALUES  
 -38.69948 -38.11654 -36.09482 -36.06797 -35.97827 -31.48468 -31.34234 -30.77256
 -29.45113 -29.36855 -28.53350 -28.01119 -27.90247 -26.87411 -26.77897 -26.47375
 -26.35147 -24.91056 -23.65617 -22.70126 -22.40822 -21.71594 -21.54081 -20.59275
 -19.92067 -19.73048 -19.71112 -18.82857 -18.08104 -17.67058 -17.18891 -17.09932
 -17.07273 -16.72028 -16.49007 -16.42202 -16.11644 -16.02699 -15.88384 -15.71347
 -15.66824 -15.52025 -15.19883 -15.11533 -14.89017 -14.79972 -14.52628 -14.14112
 -14.12375 -13.94355 -13.91059 -13.79799 -13.58813 -13.29934 -12.84861 -12.66481
 -12.53325 -12.47237 -12.37539 -11.85236 -11.74367 -11.73823 -11.62832 -11.62783
 -11.52122 -11.43963 -11.15234 -10.89551 -10.72638 -10.68167 -10.67330 -10.51733
 -10.43388 -10.36287  -9.87473  -8.89119  -1.45326  -1.13022  -0.78865  -0.62881
  -0.56966  -0.53395  -0.29140   0.05493   0.05905   0.23310   0.47404   0.64586
   0.68238   0.76171   1.03814   1.33186   1.54996   1.56436   1.76783   1.98420
   2.57046   2.58633   2.64586   2.73288   2.86028   2.89760   2.94260   3.13987
   3.23850   3.46155   3.54312   3.80684   3.88682   3.91747   4.04722   4.22468
   4.23214   4.30176   4.35937   4.44808   4.46841   4.55415   4.59245   4.63241
   4.66134   4.67476   4.72014   4.79132   4.92801   4.96675   5.03290   5.12402
   5.23399   5.30066   5.30854   5.33290   5.38158   5.41944   5.47813   5.58543
   5.70736   5.79226   5.82997   5.94089   6.02612   6.30329   6.33692   6.37852
   6.60112   6.69269


              NET ATOMIC CHARGES AND DIPOLE CONTRIBUTIONS

  ATOM NO.   TYPE          CHARGE      No. of ELECS.   s-Pop       p-Pop       d-Pop       
    1          N          -0.575183        5.5752     1.76884     3.80634
    2          N          -0.464168        5.4642     1.52034     3.94383
    3          N          -0.524070        5.5241     1.50958     4.01450
    4          N          -0.943714        5.9437     1.65621     4.28750
    5          N          -0.947334        5.9473     1.65847     4.28887
    6          C          -0.604682        4.6047     1.05730     3.54738
    7          C           0.509215        3.4908     1.05289     2.43789
    8          C           0.345531        3.6545     1.10924     2.54523
    9          C           0.245225        3.7548     1.06287     2.69191
   10          C           0.521374        3.4786     1.08368     2.39495
   11          C          -0.068470        4.0685     1.08477     2.98370
   12          C          -0.234943        4.2349     1.08407     3.15088
   13          C          -0.012701        4.0127     1.09161     2.92110
   14          C          -0.416200        4.4162     1.10724     3.30896
   15          C          -0.015694        4.0157     1.08972     2.92598
   16          C          -0.278303        4.2783     1.07647     3.20183
   17          C          -0.146193        4.1462     1.08256     3.06363
   18          C          -0.067482        4.0675     1.08863     2.97885
   19          C          -0.361051        4.3611     1.11135     3.24970
   20          C          -0.068906        4.0689     1.08968     2.97923
   21          C          -0.155669        4.1557     1.08224     3.07343
   22          O          -0.519295        6.5193     1.88173     4.63757
   23          O          -0.918525        6.9185     1.89275     5.02577
   24          O          -0.912094        6.9121     1.89275     5.01934
   25          O          -0.914399        6.9144     1.89264     5.02175
   26          O          -0.907299        6.9073     1.89257     5.01473
   27          S           0.163892        5.8361     1.89217     3.81351     0.13043
   28          S           2.358209        3.6418     1.16933     1.96874     0.50372
   29          S           2.343768        3.6562     1.17361     1.97591     0.50672
   30          H           0.331017        0.6690     0.66898
   31          H           0.321512        0.6785     0.67849
   32          H           0.353125        0.6469     0.64688
   33          H           0.293919        0.7061     0.70608
   34          H           0.294429        0.7056     0.70557
   35          H           0.293575        0.7064     0.70642
   36          H           0.292857        0.7071     0.70714
   37          H           0.201574        0.7984     0.79843
   38          H           0.175865        0.8241     0.82413
   39          H           0.176746        0.8233     0.82325
   40          H           0.159818        0.8402     0.84018
   41          H           0.163778        0.8362     0.83622
   42          H           0.171709        0.8283     0.82829
   43          H           0.176191        0.8238     0.82381
   44          H           0.163046        0.8370     0.83695
 DIPOLE           X         Y         Z       TOTAL
 POINT-CHG.     3.983    -2.367     2.640     5.333
 HYBRID        -0.270     0.253     0.418     0.558
 SUM            3.713    -2.115     3.058     5.255


          ATOMIC ORBITAL ELECTRON POPULATIONS

     Atom    s        px        py        pz      x^2-y^2     xz        z^2       yz        xy
    1  N   1.76884   1.29658   1.12204   1.38772
    2  N   1.52034   1.11512   1.17279   1.65592
    3  N   1.50958   1.23059   1.13569   1.64821
    4  N   1.65621   1.67284   1.23456   1.38009
    5  N   1.65847   1.75276   1.28149   1.25462
    6  C   1.05730   1.04332   1.00212   1.50195
    7  C   1.05289   0.84222   0.81249   0.78318
    8  C   1.10924   0.87360   0.84018   0.83145
    9  C   1.06287   0.77679   0.99058   0.92454
   10  C   1.08368   0.88362   0.83172   0.67962
   11  C   1.08477   0.99992   0.98339   1.00039
   12  C   1.08407   1.03070   1.05355   1.06662
   13  C   1.09161   0.98082   1.05433   0.88595
   14  C   1.10724   1.11208   1.02501   1.17187
   15  C   1.08972   1.00007   1.03586   0.89005
   16  C   1.07647   1.01582   1.05870   1.12732
   17  C   1.08256   0.99656   1.00687   1.06020
   18  C   1.08863   0.98169   0.96176   1.03540
   19  C   1.11135   1.11156   1.11491   1.02323
   20  C   1.08968   0.96235   0.95998   1.05689
   21  C   1.08224   1.02131   1.01065   1.04146
   22  O   1.88173   1.88340   1.28754   1.46663
   23  O   1.89275   1.77297   1.44911   1.80369
   24  O   1.89275   1.81883   1.49660   1.70391
   25  O   1.89264   1.79278   1.83177   1.39720
   26  O   1.89257   1.64968   1.82195   1.54311
   27  S   1.89217   0.89928   1.10127   1.81296   0.04901   0.01770   0.02208   0.02765   0.01398
   28  S   1.16933   0.71153   0.63042   0.62679   0.15952   0.03656   0.10254   0.11027   0.09484
   29  S   1.17361   0.66830   0.67692   0.63069   0.04457   0.12285   0.17237   0.07741   0.08952
   30  H   0.66898
   31  H   0.67849
   32  H   0.64688
   33  H   0.70608
   34  H   0.70557
   35  H   0.70642
   36  H   0.70714
   37  H   0.79843
   38  H   0.82413
   39  H   0.82325
   40  H   0.84018
   41  H   0.83622
   42  H   0.82829
   43  H   0.82381
   44  H   0.83695

 **********************
 *                    *
 * JOB ENDED NORMALLY *
 *                    *
 **********************



 TOTAL JOB TIME:            16.29 SECONDS

 == MOPAC DONE ==
