 *******************************************************************************
 **                                                                           **
 **                              MOPAC v23.2.2                                **
 **                                                                           **
 *******************************************************************************
 **          Digital Object Identifier (DOI): 10.5281/zenodo.6511958          **
 **    Visit the DOI location for information on how to cite this program.    **
 *******************************************************************************

                              PM7 CALCULATION RESULTS

 *******************************************************************************
 *  CALCULATION DONE: (MAX THREADS = 24)             Wed Mar 18 11:58:01 2026  *
 *  PM7        - The PM7 Hamiltonian to be used
 *
 *
 *
 *                 CHARGE ON SYSTEM = 0
 *
 *
 *
 *  T=         - A TIME OF 172800.0 SECONDS REQUESTED
 *  DUMP=N     - RESTART FILE WRITTEN EVERY 7200.0 SECONDS REQUESTED
 *******************************************************************************
PM7 CHARGE=0


   ATOM   CHEMICAL          X               Y               Z
  NUMBER   SYMBOL      (ANGSTROMS)     (ANGSTROMS)     (ANGSTROMS)

     1       N          1.13670000  *   0.01760000  *   1.55220000  *
     2       N          1.90690000  *  -0.75080000  *  -0.58490000  *
     3       N         -0.04190000  *   0.60710000  *   3.45430000  *
     4       N          7.95600000  *   1.72450000  *  -1.28200000  *
     5       N         -8.20660000  *   1.08000000  *  -1.07420000  *
     6       C         -1.17240000  *  -0.31980000  *   1.52790000  *
     7       C         -0.05590000  *   0.10720000  *   2.20950000  *
     8       C          0.96630000  *  -0.50160000  *   0.35740000  *
     9       C          3.29250000  *  -0.50480000  *  -0.55640000  *
    10       C         -2.54090000  *  -0.37180000  *   1.99440000  *
    11       C         -3.67320000  *  -0.29010000  *   1.03430000  *
    12       C          3.96310000  *   0.09900000  *   0.51540000  *
    13       C          5.34670000  *   0.31230000  *   0.48260000  *
    14       C          6.07850000  *  -0.07320000  *  -0.63930000  *
    15       C          5.44260000  *  -0.68850000  *  -1.71580000  *
    16       C          4.06000000  *  -0.89640000  *  -1.66990000  *
    17       C         -4.74740000  *  -1.17880000  *   1.18670000  *
    18       C         -5.83650000  *  -1.11700000  *   0.31510000  *
    19       C         -5.85500000  *  -0.14780000  *  -0.69220000  *
    20       C         -4.79290000  *   0.75030000  *  -0.84490000  *
    21       C         -3.70400000  *   0.68540000  *   0.02740000  *
    22       O         -2.84310000  *  -0.47290000  *   3.18480000  *
    23       O          8.41130000  *  -0.69860000  *  -1.66880000  *
    24       O          8.32640000  *   0.22940000  *   0.68500000  *
    25       O         -7.95220000  *  -1.31520000  *  -1.73770000  *
    26       O         -6.75590000  *   0.48120000  *  -3.06470000  *
    27       S         -0.67930000  *  -0.90710000  *  -0.00430000  *
    28       S          7.82910000  *   0.16670000  *  -0.66930000  *
    29       S         -7.22680000  *  -0.06870000  *  -1.81660000  *
    30       H          1.57930000  *  -1.17460000  *  -1.44330000  *
    31       H          0.85610000  *   0.62950000  *   3.92690000  *
    32       H         -0.81480000  *   0.38440000  *   4.08100000  *
    33       H          8.38220000  *   2.33600000  *  -0.58530000  *
    34       H          8.45100000  *   1.70630000  *  -2.17370000  *
    35       H         -7.76010000  *   1.55650000  *  -0.29180000  *
    36       H         -9.08690000  *   0.63940000  *  -0.80050000  *
    37       H          3.42620000  *   0.41770000  *   1.40430000  *
    38       H          5.83590000  *   0.77700000  *   1.33570000  *
    39       H          6.00750000  *  -1.00940000  *  -2.58800000  *
    40       H          3.58450000  *  -1.37730000  *  -2.52210000  *
    41       H         -4.73330000  *  -1.92280000  *   1.98190000  *
    42       H         -6.65740000  *  -1.82280000  *   0.42830000  *
    43       H         -4.80850000  *   1.49860000  *  -1.63620000  *
    44       H         -2.89400000  *   1.40400000  *  -0.08100000  *



          CARTESIAN COORDINATES 

    NO.       ATOM           X           Y           Z

     1         N          1.1367      0.0176      1.5522
     2         N          1.9069     -0.7508     -0.5849
     3         N         -0.0419      0.6071      3.4543
     4         N          7.9560      1.7245     -1.2820
     5         N         -8.2066      1.0800     -1.0742
     6         C         -1.1724     -0.3198      1.5279
     7         C         -0.0559      0.1072      2.2095
     8         C          0.9663     -0.5016      0.3574
     9         C          3.2925     -0.5048     -0.5564
    10         C         -2.5409     -0.3718      1.9944
    11         C         -3.6732     -0.2901      1.0343
    12         C          3.9631      0.0990      0.5154
    13         C          5.3467      0.3123      0.4826
    14         C          6.0785     -0.0732     -0.6393
    15         C          5.4426     -0.6885     -1.7158
    16         C          4.0600     -0.8964     -1.6699
    17         C         -4.7474     -1.1788      1.1867
    18         C         -5.8365     -1.1170      0.3151
    19         C         -5.8550     -0.1478     -0.6922
    20         C         -4.7929      0.7503     -0.8449
    21         C         -3.7040      0.6854      0.0274
    22         O         -2.8431     -0.4729      3.1848
    23         O          8.4113     -0.6986     -1.6688
    24         O          8.3264      0.2294      0.6850
    25         O         -7.9522     -1.3152     -1.7377
    26         O         -6.7559      0.4812     -3.0647
    27         S         -0.6793     -0.9071     -0.0043
    28         S          7.8291      0.1667     -0.6693
    29         S         -7.2268     -0.0687     -1.8166
    30         H          1.5793     -1.1746     -1.4433
    31         H          0.8561      0.6295      3.9269
    32         H         -0.8148      0.3844      4.0810
    33         H          8.3822      2.3360     -0.5853
    34         H          8.4510      1.7063     -2.1737
    35         H         -7.7601      1.5565     -0.2918
    36         H         -9.0869      0.6394     -0.8005
    37         H          3.4262      0.4177      1.4043
    38         H          5.8359      0.7770      1.3357
    39         H          6.0075     -1.0094     -2.5880
    40         H          3.5845     -1.3773     -2.5221
    41         H         -4.7333     -1.9228      1.9819
    42         H         -6.6574     -1.8228      0.4283
    43         H         -4.8085      1.4986     -1.6362
    44         H         -2.8940      1.4040     -0.0810

 General Reference for PM7:
 "Optimization of Parameters for Semiempirical Methods VI: More Modifications to the 
 NDDO Approximations and Re-optimization of Parameters", J. J. P. Stewart, J. Mol. Mod., 1:32, 19 (2013)
 https://link.springer.com/article/10.1007/s00894-012-1667-x

           Empirical Formula: C16 H15 N5 O5 S3  =    44 atoms



      MOLECULAR POINT GROUP   :   C1  


      RHF CALCULATION, NO. OF DOUBLY OCCUPIED LEVELS = 76


          Geometry optimization using L-BFGS
 CYCLE:     1 TIME:   0.184 TIME LEFT:  2.00D  GRAD.:   168.066 HEAT: -89.93076
 CYCLE:     2 TIME:   0.031 TIME LEFT:  2.00D  GRAD.:   165.122 HEAT: -90.21072
 CYCLE:     3 TIME:   0.039 TIME LEFT:  2.00D  GRAD.:    48.750 HEAT: -100.3321
 CYCLE:     4 TIME:   0.039 TIME LEFT:  2.00D  GRAD.:   165.315 HEAT: -90.21531
 CYCLE:     5 TIME:   0.039 TIME LEFT:  2.00D  GRAD.:    48.799 HEAT: -100.3327
 CYCLE:     6 TIME:   0.039 TIME LEFT:  2.00D  GRAD.:    45.226 HEAT: -101.7510
 CYCLE:     7 TIME:   0.035 TIME LEFT:  2.00D  GRAD.:    38.825 HEAT: -103.4912
 CYCLE:     8 TIME:   0.039 TIME LEFT:  2.00D  GRAD.:    63.341 HEAT: -104.5266
 CYCLE:     9 TIME:   0.035 TIME LEFT:  2.00D  GRAD.:    27.584 HEAT: -105.4434
 CYCLE:    10 TIME:   0.035 TIME LEFT:  2.00D  GRAD.:    17.501 HEAT: -105.8361
 CYCLE:    11 TIME:   0.039 TIME LEFT:  2.00D  GRAD.:    16.511 HEAT: -106.0728
 CYCLE:    12 TIME:   0.035 TIME LEFT:  2.00D  GRAD.:    32.034 HEAT: -106.3685
 CYCLE:    13 TIME:   0.035 TIME LEFT:  2.00D  GRAD.:    14.459 HEAT: -106.6514
 CYCLE:    14 TIME:   0.035 TIME LEFT:  2.00D  GRAD.:    11.624 HEAT: -106.7627
 CYCLE:    15 TIME:   0.039 TIME LEFT:  2.00D  GRAD.:    13.920 HEAT: -106.9954
 CYCLE:    16 TIME:   0.035 TIME LEFT:  2.00D  GRAD.:    28.816 HEAT: -107.1049
 CYCLE:    17 TIME:   0.031 TIME LEFT:  2.00D  GRAD.:    13.936 HEAT: -107.2955
 CYCLE:    18 TIME:   0.039 TIME LEFT:  2.00D  GRAD.:     9.610 HEAT: -107.4420
 CYCLE:    19 TIME:   0.035 TIME LEFT:  2.00D  GRAD.:    10.146 HEAT: -107.5354
 CYCLE:    20 TIME:   0.039 TIME LEFT:  2.00D  GRAD.:    14.774 HEAT: -107.7087
 CYCLE:    21 TIME:   0.039 TIME LEFT:  2.00D  GRAD.:    24.934 HEAT: -107.7584
 CYCLE:    22 TIME:   0.031 TIME LEFT:  2.00D  GRAD.:     9.030 HEAT: -107.8947
 CYCLE:    23 TIME:   0.035 TIME LEFT:  2.00D  GRAD.:     6.962 HEAT: -107.9357
 CYCLE:    24 TIME:   0.035 TIME LEFT:  2.00D  GRAD.:     9.164 HEAT: -108.0092
 CYCLE:    25 TIME:   0.043 TIME LEFT:  2.00D  GRAD.:    13.513 HEAT: -108.0976
 CYCLE:    26 TIME:   0.035 TIME LEFT:  2.00D  GRAD.:    13.114 HEAT: -108.2188
 CYCLE:    27 TIME:   0.039 TIME LEFT:  2.00D  GRAD.:    18.171 HEAT: -108.4153
 CYCLE:    28 TIME:   0.039 TIME LEFT:  2.00D  GRAD.:    16.874 HEAT: -108.6530
 CYCLE:    29 TIME:   0.039 TIME LEFT:  2.00D  GRAD.:    23.840 HEAT: -108.7948
 CYCLE:    30 TIME:   0.039 TIME LEFT:  2.00D  GRAD.:    56.375 HEAT: -108.5599
 CYCLE:    31 TIME:   0.156 TIME LEFT:  2.00D  GRAD.:    16.898 HEAT: -109.5031
 CYCLE:    32 TIME:   0.035 TIME LEFT:  2.00D  GRAD.:    12.761 HEAT: -109.6671
 CYCLE:    33 TIME:   0.039 TIME LEFT:  2.00D  GRAD.:    12.719 HEAT: -109.8639
 CYCLE:    34 TIME:   0.035 TIME LEFT:  2.00D  GRAD.:    17.811 HEAT: -110.0299
 CYCLE:    35 TIME:   0.035 TIME LEFT:  2.00D  GRAD.:    13.313 HEAT: -110.1647
 CYCLE:    36 TIME:   0.039 TIME LEFT:  2.00D  GRAD.:     9.287 HEAT: -110.2312
 CYCLE:    37 TIME:   0.035 TIME LEFT:  2.00D  GRAD.:    19.086 HEAT: -110.2437
 CYCLE:    38 TIME:   0.039 TIME LEFT:  2.00D  GRAD.:    11.367 HEAT: -110.3668
 CYCLE:    39 TIME:   0.031 TIME LEFT:  2.00D  GRAD.:     6.469 HEAT: -110.4288
 CYCLE:    40 TIME:   0.035 TIME LEFT:  2.00D  GRAD.:     6.760 HEAT: -110.4916
 CYCLE:    41 TIME:   0.039 TIME LEFT:  2.00D  GRAD.:    17.069 HEAT: -110.5377
 CYCLE:    42 TIME:   0.031 TIME LEFT:  2.00D  GRAD.:     6.077 HEAT: -110.6003
 CYCLE:    43 TIME:   0.035 TIME LEFT:  2.00D  GRAD.:     5.701 HEAT: -110.6256
 CYCLE:    44 TIME:   0.035 TIME LEFT:  2.00D  GRAD.:     7.394 HEAT: -110.6705
 CYCLE:    45 TIME:   0.031 TIME LEFT:  2.00D  GRAD.:    12.589 HEAT: -110.7107
 CYCLE:    46 TIME:   0.035 TIME LEFT:  2.00D  GRAD.:     7.603 HEAT: -110.7657
 CYCLE:    47 TIME:   0.035 TIME LEFT:  2.00D  GRAD.:     7.542 HEAT: -110.8361
 CYCLE:    48 TIME:   0.035 TIME LEFT:  2.00D  GRAD.:    11.568 HEAT: -110.9247
 CYCLE:    49 TIME:   0.039 TIME LEFT:  2.00D  GRAD.:    15.031 HEAT: -111.0254
 CYCLE:    50 TIME:   0.035 TIME LEFT:  2.00D  GRAD.:    14.493 HEAT: -111.1317
 CYCLE:    51 TIME:   0.039 TIME LEFT:  2.00D  GRAD.:    17.592 HEAT: -111.2156
 CYCLE:    52 TIME:   0.035 TIME LEFT:  2.00D  GRAD.:    13.527 HEAT: -111.3419
 CYCLE:    53 TIME:   0.035 TIME LEFT:  2.00D  GRAD.:    10.089 HEAT: -111.4365
 CYCLE:    54 TIME:   0.035 TIME LEFT:  2.00D  GRAD.:    11.896 HEAT: -111.4802
 CYCLE:    55 TIME:   0.035 TIME LEFT:  2.00D  GRAD.:    12.197 HEAT: -111.5985
 CYCLE:    56 TIME:   0.039 TIME LEFT:  2.00D  GRAD.:    12.616 HEAT: -111.7163
 CYCLE:    57 TIME:   0.039 TIME LEFT:  2.00D  GRAD.:     9.647 HEAT: -111.8151
 CYCLE:    58 TIME:   0.035 TIME LEFT:  2.00D  GRAD.:     7.723 HEAT: -111.8685
 CYCLE:    59 TIME:   0.035 TIME LEFT:  2.00D  GRAD.:    10.040 HEAT: -111.9225
 CYCLE:    60 TIME:   0.035 TIME LEFT:  2.00D  GRAD.:     9.263 HEAT: -111.9635
 CYCLE:    61 TIME:   0.035 TIME LEFT:  2.00D  GRAD.:    11.495 HEAT: -112.0113
 CYCLE:    62 TIME:   0.031 TIME LEFT:  2.00D  GRAD.:     7.906 HEAT: -112.0738
 CYCLE:    63 TIME:   0.035 TIME LEFT:  2.00D  GRAD.:     8.133 HEAT: -112.1385
 CYCLE:    64 TIME:   0.035 TIME LEFT:  2.00D  GRAD.:    12.643 HEAT: -112.1989
 CYCLE:    65 TIME:   0.035 TIME LEFT:  2.00D  GRAD.:    15.494 HEAT: -112.2253
 CYCLE:    66 TIME:   0.035 TIME LEFT:  2.00D  GRAD.:     5.628 HEAT: -112.2789
 CYCLE:    67 TIME:   0.035 TIME LEFT:  2.00D  GRAD.:     4.331 HEAT: -112.3005
 CYCLE:    68 TIME:   0.031 TIME LEFT:  2.00D  GRAD.:     6.165 HEAT: -112.3339
 CYCLE:    69 TIME:   0.035 TIME LEFT:  2.00D  GRAD.:     9.889 HEAT: -112.3602
 CYCLE:    70 TIME:   0.035 TIME LEFT:  2.00D  GRAD.:     5.400 HEAT: -112.3943
 CYCLE:    71 TIME:   0.035 TIME LEFT:  2.00D  GRAD.:     5.165 HEAT: -112.4174
 CYCLE:    72 TIME:   0.031 TIME LEFT:  2.00D  GRAD.:     4.582 HEAT: -112.4367
 CYCLE:    73 TIME:   0.035 TIME LEFT:  2.00D  GRAD.:     6.662 HEAT: -112.4572
 CYCLE:    74 TIME:   0.035 TIME LEFT:  2.00D  GRAD.:     4.752 HEAT: -112.4770
 CYCLE:    75 TIME:   0.031 TIME LEFT:  2.00D  GRAD.:     3.758 HEAT: -112.4904
 CYCLE:    76 TIME:   0.035 TIME LEFT:  2.00D  GRAD.:     4.045 HEAT: -112.5046
 CYCLE:    77 TIME:   0.035 TIME LEFT:  2.00D  GRAD.:     7.522 HEAT: -112.5214
 CYCLE:    78 TIME:   0.035 TIME LEFT:  2.00D  GRAD.:     3.985 HEAT: -112.5395
 CYCLE:    79 TIME:   0.031 TIME LEFT:  2.00D  GRAD.:     3.174 HEAT: -112.5506
 CYCLE:    80 TIME:   0.035 TIME LEFT:  2.00D  GRAD.:     3.235 HEAT: -112.5589
 CYCLE:    81 TIME:   0.035 TIME LEFT:  2.00D  GRAD.:     4.117 HEAT: -112.5654
 CYCLE:    82 TIME:   0.035 TIME LEFT:  2.00D  GRAD.:     2.913 HEAT: -112.5732
 CYCLE:    83 TIME:   0.035 TIME LEFT:  2.00D  GRAD.:     2.479 HEAT: -112.5786
 CYCLE:    84 TIME:   0.031 TIME LEFT:  2.00D  GRAD.:     1.909 HEAT: -112.5817
 CYCLE:    85 TIME:   0.039 TIME LEFT:  2.00D  GRAD.:     1.830 HEAT: -112.5860
 CYCLE:    86 TIME:   0.035 TIME LEFT:  2.00D  GRAD.:     2.854 HEAT: -112.5902
 CYCLE:    87 TIME:   0.035 TIME LEFT:  2.00D  GRAD.:     2.088 HEAT: -112.5943
 CYCLE:    88 TIME:   0.031 TIME LEFT:  2.00D  GRAD.:     1.717 HEAT: -112.5979
 CYCLE:    89 TIME:   0.035 TIME LEFT:  2.00D  GRAD.:     2.062 HEAT: -112.6005
 CYCLE:    90 TIME:   0.035 TIME LEFT:  2.00D  GRAD.:     1.917 HEAT: -112.6036
 CYCLE:    91 TIME:   0.035 TIME LEFT:  2.00D  GRAD.:     3.130 HEAT: -112.6085
 CYCLE:    92 TIME:   0.035 TIME LEFT:  2.00D  GRAD.:     2.991 HEAT: -112.6130
 CYCLE:    93 TIME:   0.031 TIME LEFT:  2.00D  GRAD.:     2.259 HEAT: -112.6171
 CYCLE:    94 TIME:   0.035 TIME LEFT:  2.00D  GRAD.:     2.371 HEAT: -112.6239
 CYCLE:    95 TIME:   0.035 TIME LEFT:  2.00D  GRAD.:     3.984 HEAT: -112.6288
 CYCLE:    96 TIME:   0.031 TIME LEFT:  2.00D  GRAD.:     3.169 HEAT: -112.6347
 CYCLE:    97 TIME:   0.035 TIME LEFT:  2.00D  GRAD.:     2.505 HEAT: -112.6448
 CYCLE:    98 TIME:   0.035 TIME LEFT:  2.00D  GRAD.:     3.413 HEAT: -112.6519
 CYCLE:    99 TIME:   0.035 TIME LEFT:  2.00D  GRAD.:     4.294 HEAT: -112.6573
 CYCLE:   100 TIME:   0.035 TIME LEFT:  2.00D  GRAD.:     2.111 HEAT: -112.6649
 CYCLE:   101 TIME:   0.035 TIME LEFT:  2.00D  GRAD.:     1.992 HEAT: -112.6713
 CYCLE:   102 TIME:   0.035 TIME LEFT:  2.00D  GRAD.:     3.419 HEAT: -112.6753
 CYCLE:   103 TIME:   0.035 TIME LEFT:  2.00D  GRAD.:     2.909 HEAT: -112.6812
 CYCLE:   104 TIME:   0.035 TIME LEFT:  2.00D  GRAD.:     3.416 HEAT: -112.6926
 CYCLE:   105 TIME:   0.035 TIME LEFT:  2.00D  GRAD.:     3.093 HEAT: -112.7013
 CYCLE:   106 TIME:   0.035 TIME LEFT:  2.00D  GRAD.:     3.543 HEAT: -112.7081
 CYCLE:   107 TIME:   0.035 TIME LEFT:  2.00D  GRAD.:     2.580 HEAT: -112.7151
 CYCLE:   108 TIME:   0.031 TIME LEFT:  2.00D  GRAD.:     2.836 HEAT: -112.7207
 CYCLE:   109 TIME:   0.035 TIME LEFT:  2.00D  GRAD.:     2.298 HEAT: -112.7247
 CYCLE:   110 TIME:   0.035 TIME LEFT:  2.00D  GRAD.:     1.977 HEAT: -112.7277
 CYCLE:   111 TIME:   0.035 TIME LEFT:  2.00D  GRAD.:     2.254 HEAT: -112.7326
 CYCLE:   112 TIME:   0.039 TIME LEFT:  2.00D  GRAD.:     4.726 HEAT: -112.7325
 CYCLE:   113 TIME:   0.031 TIME LEFT:  2.00D  GRAD.:     1.455 HEAT: -112.7358
 CYCLE:   114 TIME:   0.035 TIME LEFT:  2.00D  GRAD.:     1.119 HEAT: -112.7368
 CYCLE:   115 TIME:   0.035 TIME LEFT:  2.00D  GRAD.:     1.742 HEAT: -112.7394
 CYCLE:   116 TIME:   0.035 TIME LEFT:  2.00D  GRAD.:     1.932 HEAT: -112.7422
 CYCLE:   117 TIME:   0.039 TIME LEFT:  2.00D  GRAD.:     3.194 HEAT: -112.7444
 CYCLE:   118 TIME:   0.031 TIME LEFT:  2.00D  GRAD.:     1.513 HEAT: -112.7469
 CYCLE:   119 TIME:   0.035 TIME LEFT:  2.00D  GRAD.:     1.094 HEAT: -112.7480
 CYCLE:   120 TIME:   0.035 TIME LEFT:  2.00D  GRAD.:     1.159 HEAT: -112.7497
 CYCLE:   121 TIME:   0.039 TIME LEFT:  2.00D  GRAD.:     2.174 HEAT: -112.7514
 CYCLE:   122 TIME:   0.031 TIME LEFT:  2.00D  GRAD.:     1.444 HEAT: -112.7531
 CYCLE:   123 TIME:   0.035 TIME LEFT:  2.00D  GRAD.:     1.017 HEAT: -112.7544
 CYCLE:   124 TIME:   0.035 TIME LEFT:  2.00D  GRAD.:     1.444 HEAT: -112.7561
 CYCLE:   125 TIME:   0.035 TIME LEFT:  2.00D  GRAD.:     1.838 HEAT: -112.7577
 CYCLE:   126 TIME:   0.035 TIME LEFT:  2.00D  GRAD.:     1.909 HEAT: -112.7600
 CYCLE:   127 TIME:   0.035 TIME LEFT:  2.00D  GRAD.:     1.398 HEAT: -112.7620
 CYCLE:   128 TIME:   0.031 TIME LEFT:  2.00D  GRAD.:     1.486 HEAT: -112.7640
 CYCLE:   129 TIME:   0.539 TIME LEFT:  2.00D  GRAD.:     1.927 HEAT: -112.7667
 CYCLE:   130 TIME:   0.258 TIME LEFT:  2.00D  GRAD.:     3.223 HEAT: -112.7690
 CYCLE:   131 TIME:   0.273 TIME LEFT:  2.00D  GRAD.:     1.460 HEAT: -112.7718
 CYCLE:   132 TIME:   0.391 TIME LEFT:  2.00D  GRAD.:     1.433 HEAT: -112.7740
 CYCLE:   133 TIME:   0.289 TIME LEFT:  2.00D  GRAD.:     1.553 HEAT: -112.7759
 CYCLE:   134 TIME:   0.027 TIME LEFT:  2.00D  GRAD.:     2.474 HEAT: -112.7787
 CYCLE:   135 TIME:   0.023 TIME LEFT:  2.00D  GRAD.:     2.099 HEAT: -112.7820
 CYCLE:   136 TIME:   0.023 TIME LEFT:  2.00D  GRAD.:     1.575 HEAT: -112.7846
 CYCLE:   137 TIME:   0.027 TIME LEFT:  2.00D  GRAD.:     1.896 HEAT: -112.7890
 CYCLE:   138 TIME:   0.031 TIME LEFT:  2.00D  GRAD.:     2.649 HEAT: -112.7914
 CYCLE:   139 TIME:   0.027 TIME LEFT:  2.00D  GRAD.:     1.628 HEAT: -112.7941
 CYCLE:   140 TIME:   0.023 TIME LEFT:  2.00D  GRAD.:     1.352 HEAT: -112.7966
 CYCLE:   141 TIME:   0.023 TIME LEFT:  2.00D  GRAD.:     1.574 HEAT: -112.7980
 CYCLE:   142 TIME:   0.027 TIME LEFT:  2.00D  GRAD.:     1.442 HEAT: -112.8004
 CYCLE:   143 TIME:   0.023 TIME LEFT:  2.00D  GRAD.:     3.022 HEAT: -112.8022
 CYCLE:   144 TIME:   0.023 TIME LEFT:  2.00D  GRAD.:     1.180 HEAT: -112.8043
 CYCLE:   145 TIME:   0.027 TIME LEFT:  2.00D  GRAD.:     0.922 HEAT: -112.8052

 -------------------------------------------------------------------------------
 PM7 CHARGE=0




     HERBERTS TEST WAS SATISFIED IN BFGS                      
     SCF FIELD WAS ACHIEVED                                   


                              PM7 CALCULATION
                                                       MOPAC v23.2.2 Linux
                                                       Wed Mar 18 11:58:08 2026




          FINAL HEAT OF FORMATION =       -112.80516 KCAL/MOL =    -471.97677 KJ/MOL


          COSMO AREA              =        412.81 SQUARE ANGSTROMS
          COSMO VOLUME            =        460.87 CUBIC ANGSTROMS

          GRADIENT NORM           =          0.92190          =       0.13898 PER ATOM
          IONIZATION POTENTIAL    =          8.861870 EV
          HOMO LUMO ENERGIES (EV) =         -8.862 -1.444
          NO. OF FILLED LEVELS    =         76
          MOLECULAR WEIGHT        =        453.5050         POINT GROUP:  C1  

          MOLECULAR DIMENSIONS (Angstroms)

            Atom       Atom       Distance
            H    36    H    34    17.76940
            H    31    O    26     7.64472
            H    40    H    35     3.99895


          SCF CALCULATIONS        =        146

          WALL-CLOCK TIME         =      6.879 SECONDS
          COMPUTATION TIME        =          2 MINUTES AND 42.920 SECONDS




   ATOM   CHEMICAL          X               Y               Z
  NUMBER   SYMBOL      (ANGSTROMS)     (ANGSTROMS)     (ANGSTROMS)

     1       N          1.22638789  *  -0.23694389  *   1.49712910  *
     2       N          1.93713980  *  -0.71212940  *  -0.74801127  *
     3       N          0.08146459  *   0.19253051  *   3.52168784  *
     4       N          7.98896941  *   1.71025088  *  -1.22086823  *
     5       N         -8.40361239  *   0.82372680  *  -0.91069966  *
     6       C         -1.16005282  *  -0.19640984  *   1.44372840  *
     7       C          0.02022778  *  -0.07321180  *   2.20296734  *
     8       C          0.99606457  *  -0.51265630  *   0.21778959  *
     9       C          3.33664377  *  -0.54438453  *  -0.61031398  *
    10       C         -2.46556522  *   0.00482778  *   1.98438486  *
    11       C         -3.63568703  *  -0.04958967  *   1.06328285  *
    12       C          3.95226263  *  -0.00041287  *   0.52182769  *
    13       C          5.33251784  *   0.18068649  *   0.53123587  *
    14       C          6.10036480  *  -0.17361958  *  -0.57613644  *
    15       C          5.49012247  *  -0.74635078  *  -1.69267478  *
    16       C          4.11464333  *  -0.93291196  *  -1.71983103  *
    17       C         -4.55317513  *  -1.08999146  *   1.18998894  *
    18       C         -5.65865377  *  -1.13612693  *   0.34199353  *
    19       C         -5.83975913  *  -0.13876865  *  -0.61448348  *
    20       C         -4.92155457  *   0.90289064  *  -0.73500730  *
    21       C         -3.81464468  *   0.95145835  *   0.11021077  *
    22       O         -2.64263099  *   0.22666044  *   3.17184538  *
    23       O          8.44829852  *  -0.76949036  *  -1.53448648  *
    24       O          8.28170963  *   0.19811987  *   0.79950523  *
    25       O         -7.78190856  *  -1.53215612  *  -1.64652756  *
    26       O         -6.89565525  *   0.46492504  *  -2.92121768  *
    27       S         -0.77246664  *  -0.60196495  *  -0.20237793  *
    28       S          7.82862381  *   0.10673286  *  -0.56839988  *
    29       S         -7.23041234  *  -0.19831334  *  -1.68271829  *
    30       H          1.61464573  *  -1.01828575  *  -1.66961484  *
    31       H          0.95630651  *   0.26991385  *   4.00074932  *
    32       H         -0.78806063  *   0.31010765  *   4.03523052  *
    33       H          8.33321967  *   2.42044375  *  -0.59645770  *
    34       H          8.42957183  *   1.79000082  *  -2.12179570  *
    35       H         -8.67493732  *   1.65545638  *  -1.40860304  *
    36       H         -9.20990623  *   0.36980929  *  -0.51448757  *
    37       H          3.37099692  *   0.28768612  *   1.40157905  *
    38       H          5.80152883  *   0.60363799  *   1.43021884  *
    39       H          6.08699166  *  -1.06166605  *  -2.55861051  *
    40       H          3.64910719  *  -1.37765932  *  -2.59518468  *
    41       H         -4.41050042  *  -1.85580734  *   1.95234147  *
    42       H         -6.37121596  *  -1.96414660  *   0.43737413  *
    43       H         -5.04797541  *   1.68370405  *  -1.49266812  *
    44       H         -3.09975900  *   1.76942889  *   0.02846480  *

                             CARTESIAN COORDINATES

   1    N        1.226387890    -0.236943894     1.497129095
   2    N        1.937139800    -0.712129397    -0.748011270
   3    N        0.081464587     0.192530507     3.521687836
   4    N        7.988969413     1.710250877    -1.220868234
   5    N       -8.403612387     0.823726798    -0.910699663
   6    C       -1.160052820    -0.196409841     1.443728404
   7    C        0.020227777    -0.073211797     2.202967338
   8    C        0.996064570    -0.512656302     0.217789592
   9    C        3.336643774    -0.544384528    -0.610313981
  10    C       -2.465565220     0.004827778     1.984384858
  11    C       -3.635687033    -0.049589671     1.063282845
  12    C        3.952262627    -0.000412866     0.521827692
  13    C        5.332517840     0.180686491     0.531235873
  14    C        6.100364803    -0.173619578    -0.576136436
  15    C        5.490122473    -0.746350780    -1.692674784
  16    C        4.114643326    -0.932911956    -1.719831033
  17    C       -4.553175126    -1.089991459     1.189988944
  18    C       -5.658653766    -1.136126935     0.341993527
  19    C       -5.839759125    -0.138768653    -0.614483482
  20    C       -4.921554569     0.902890635    -0.735007297
  21    C       -3.814644684     0.951458345     0.110210767
  22    O       -2.642630986     0.226660436     3.171845378
  23    O        8.448298519    -0.769490363    -1.534486484
  24    O        8.281709634     0.198119869     0.799505227
  25    O       -7.781908561    -1.532156119    -1.646527560
  26    O       -6.895655249     0.464925040    -2.921217678
  27    S       -0.772466644    -0.601964952    -0.202377929
  28    S        7.828623813     0.106732856    -0.568399881
  29    S       -7.230412337    -0.198313343    -1.682718293
  30    H        1.614645734    -1.018285748    -1.669614836
  31    H        0.956306506     0.269913846     4.000749316
  32    H       -0.788060631     0.310107653     4.035230516
  33    H        8.333219674     2.420443753    -0.596457701
  34    H        8.429571827     1.790000819    -2.121795703
  35    H       -8.674937323     1.655456382    -1.408603044
  36    H       -9.209906225     0.369809294    -0.514487571
  37    H        3.370996923     0.287686122     1.401579054
  38    H        5.801528833     0.603637988     1.430218840
  39    H        6.086991661    -1.061666046    -2.558610506
  40    H        3.649107193    -1.377659320    -2.595184680
  41    H       -4.410500418    -1.855807336     1.952341472
  42    H       -6.371215963    -1.964146601     0.437374130
  43    H       -5.047975410     1.683704049    -1.492668125
  44    H       -3.099759000     1.769428893     0.028464799


           Empirical Formula: C16 H15 N5 O5 S3  =    44 atoms



      MOLECULAR POINT GROUP   :   C1  


                  EIGENVALUES  
 -38.66480 -38.09683 -36.08182 -36.03681 -35.96140 -31.47794 -31.29701 -30.75514
 -29.41701 -29.35793 -28.50209 -27.97590 -27.88521 -26.84236 -26.75422 -26.47488
 -26.32569 -24.88657 -23.64315 -22.68335 -22.38461 -21.72615 -21.49558 -20.55678
 -19.88626 -19.73463 -19.68718 -18.79340 -18.06087 -17.65259 -17.15558 -17.07071
 -17.05758 -16.71754 -16.47342 -16.41786 -16.13629 -15.93050 -15.83239 -15.68834
 -15.63655 -15.50165 -15.19278 -15.08878 -14.90875 -14.80216 -14.50391 -14.13391
 -14.10204 -13.95789 -13.87426 -13.78981 -13.56731 -13.26510 -12.82433 -12.63125
 -12.53280 -12.43787 -12.36782 -11.81793 -11.75021 -11.70248 -11.63381 -11.60671
 -11.50598 -11.42743 -11.12798 -10.87049 -10.69410 -10.67092 -10.63925 -10.51903
 -10.42156 -10.35637  -9.82136  -8.86187  -1.44400  -1.09813  -0.80978  -0.56933
  -0.53020  -0.51800  -0.28796   0.08765   0.09459   0.26731   0.50177   0.67425
   0.71855   0.76385   1.06359   1.33519   1.57679   1.60848   1.79129   2.00386
   2.59349   2.61168   2.67537   2.76223   2.84513   2.93786   2.94100   3.14342
   3.25257   3.47428   3.58003   3.80182   3.91540   3.94384   4.07931   4.23853
   4.27129   4.29953   4.39554   4.45914   4.51025   4.55741   4.58768   4.66779
   4.68403   4.70635   4.72530   4.79189   4.94440   5.00108   5.07283   5.14750
   5.23746   5.30440   5.32832   5.36162   5.41812   5.45755   5.49774   5.58831
   5.71042   5.79901   5.89263   5.97755   6.03313   6.33609   6.35455   6.41220
   6.63567   6.70363


              NET ATOMIC CHARGES AND DIPOLE CONTRIBUTIONS

  ATOM NO.   TYPE          CHARGE      No. of ELECS.   s-Pop       p-Pop       d-Pop       
    1          N          -0.574077        5.5741     1.76811     3.80597
    2          N          -0.462808        5.4628     1.52014     3.94266
    3          N          -0.523900        5.5239     1.50953     4.01437
    4          N          -0.946423        5.9464     1.65623     4.29019
    5          N          -0.942541        5.9425     1.65522     4.28732
    6          C          -0.605498        4.6055     1.05742     3.54808
    7          C           0.508885        3.4911     1.05290     2.43822
    8          C           0.343655        3.6563     1.10955     2.54679
    9          C           0.249658        3.7503     1.06304     2.68730
   10          C           0.522355        3.4776     1.08384     2.39381
   11          C          -0.070636        4.0706     1.08468     2.98596
   12          C          -0.242837        4.2428     1.08400     3.15884
   13          C          -0.011433        4.0114     1.09208     2.91935
   14          C          -0.419652        4.4197     1.10680     3.31285
   15          C          -0.012555        4.0126     1.08933     2.92322
   16          C          -0.281724        4.2817     1.07601     3.20571
   17          C          -0.142456        4.1425     1.08340     3.05905
   18          C          -0.071967        4.0720     1.08987     2.98210
   19          C          -0.360125        4.3601     1.11171     3.24841
   20          C          -0.067706        4.0677     1.08829     2.97941
   21          C          -0.155932        4.1559     1.08242     3.07351
   22          O          -0.525076        6.5251     1.88180     4.64327
   23          O          -0.916203        6.9162     1.89271     5.02350
   24          O          -0.913310        6.9133     1.89280     5.02051
   25          O          -0.914931        6.9149     1.89259     5.02234
   26          O          -0.915888        6.9159     1.89273     5.02316
   27          S           0.172879        5.8271     1.89202     3.80527     0.12983
   28          S           2.359270        3.6407     1.16920     1.96822     0.50332
   29          S           2.345952        3.6540     1.17319     1.97499     0.50587
   30          H           0.331357        0.6686     0.66864
   31          H           0.321668        0.6783     0.67833
   32          H           0.352729        0.6473     0.64727
   33          H           0.294339        0.7057     0.70566
   34          H           0.293666        0.7063     0.70633
   35          H           0.294913        0.7051     0.70509
   36          H           0.295172        0.7048     0.70483
   37          H           0.203971        0.7960     0.79603
   38          H           0.176801        0.8232     0.82320
   39          H           0.175034        0.8250     0.82497
   40          H           0.159946        0.8401     0.84005
   41          H           0.165302        0.8347     0.83470
   42          H           0.176962        0.8230     0.82304
   43          H           0.170784        0.8292     0.82922
   44          H           0.162380        0.8376     0.83762
 DIPOLE           X         Y         Z       TOTAL
 POINT-CHG.     0.486     2.899    -0.258     2.951
 HYBRID        -0.491     0.387     0.461     0.777
 SUM           -0.005     3.286     0.202     3.292


          ATOMIC ORBITAL ELECTRON POPULATIONS

     Atom    s        px        py        pz      x^2-y^2     xz        z^2       yz        xy
    1  N   1.76811   1.30208   1.38884   1.11504
    2  N   1.52014   1.11644   1.62823   1.19800
    3  N   1.50953   1.22764   1.64794   1.13878
    4  N   1.65623   1.74420   1.29301   1.25298
    5  N   1.65522   1.38367   1.30818   1.59547
    6  C   1.05742   1.04022   1.49143   1.01643
    7  C   1.05290   0.84439   0.78307   0.81076
    8  C   1.10955   0.87655   0.83623   0.83402
    9  C   1.06304   0.77657   0.92787   0.98286
   10  C   1.08384   0.88402   0.67808   0.83171
   11  C   1.08468   1.00395   0.99671   0.98530
   12  C   1.08400   1.02613   1.06363   1.06908
   13  C   1.09208   0.98297   0.91308   1.02330
   14  C   1.10680   1.11422   1.15249   1.04614
   15  C   1.08933   0.99326   0.90793   1.02203
   16  C   1.07601   1.02112   1.12178   1.06282
   17  C   1.08340   0.98031   1.03888   1.03986
   18  C   1.08987   1.01457   1.01650   0.95102
   19  C   1.11171   1.10075   1.05084   1.09682
   20  C   1.08829   0.95974   1.01108   1.00860
   21  C   1.08242   1.03987   1.04382   0.98982
   22  O   1.88180   1.88796   1.47595   1.27936
   23  O   1.89271   1.76042   1.66107   1.60200
   24  O   1.89280   1.79718   1.81688   1.40644
   25  O   1.89259   1.76871   1.43406   1.81957
   26  O   1.89273   1.81052   1.71198   1.50066
   27  S   1.89202   0.89534   1.80026   1.10968   0.03213   0.01153   0.04014   0.02919   0.01684
   28  S   1.16920   0.70597   0.63319   0.62905   0.10194   0.09006   0.14965   0.11997   0.04170
   29  S   1.17319   0.69441   0.62823   0.65236   0.09657   0.10973   0.08518   0.11445   0.09994
   30  H   0.66864
   31  H   0.67833
   32  H   0.64727
   33  H   0.70566
   34  H   0.70633
   35  H   0.70509
   36  H   0.70483
   37  H   0.79603
   38  H   0.82320
   39  H   0.82497
   40  H   0.84005
   41  H   0.83470
   42  H   0.82304
   43  H   0.82922
   44  H   0.83762

 **********************
 *                    *
 * JOB ENDED NORMALLY *
 *                    *
 **********************



 TOTAL JOB TIME:             6.88 SECONDS

 == MOPAC DONE ==
