 *******************************************************************************
 **                                                                           **
 **                              MOPAC v23.2.2                                **
 **                                                                           **
 *******************************************************************************
 **          Digital Object Identifier (DOI): 10.5281/zenodo.6511958          **
 **    Visit the DOI location for information on how to cite this program.    **
 *******************************************************************************

                              PM7 CALCULATION RESULTS

 *******************************************************************************
 *  CALCULATION DONE: (MAX THREADS = 24)             Wed Mar 18 11:58:28 2026  *
 *  PM7        - The PM7 Hamiltonian to be used
 *
 *
 *
 *                 CHARGE ON SYSTEM = 0
 *
 *
 *
 *  T=         - A TIME OF 172800.0 SECONDS REQUESTED
 *  DUMP=N     - RESTART FILE WRITTEN EVERY 7200.0 SECONDS REQUESTED
 *******************************************************************************
PM7 CHARGE=0


   ATOM   CHEMICAL          X               Y               Z
  NUMBER   SYMBOL      (ANGSTROMS)     (ANGSTROMS)     (ANGSTROMS)

     1       N          0.95670000  *   1.51290000  *   0.84850000  *
     2       N          1.82260000  *  -0.63100000  *   0.21470000  *
     3       N         -0.31100000  *   3.35430000  *   1.44750000  *
     4       N          8.25740000  *   0.08310000  *   1.34160000  *
     5       N         -6.76300000  *  -2.89850000  *  -1.69240000  *
     6       C         -1.36090000  *   1.24310000  *   0.91110000  *
     7       C         -0.27000000  *   2.06460000  *   1.08060000  *
     8       C          0.83610000  *   0.24850000  *   0.51220000  *
     9       C          3.20910000  *  -0.41650000  *   0.10350000  *
    10       C         -2.75740000  *   1.55330000  *   1.12990000  *
    11       C         -3.82100000  *   0.83560000  *   0.37670000  *
    12       C          3.82240000  *   0.83840000  *   0.21520000  *
    13       C          5.21120000  *   0.98280000  *   0.10920000  *
    14       C          6.00870000  *  -0.14190000  *  -0.09630000  *
    15       C          5.42830000  *  -1.40300000  *  -0.21690000  *
    16       C          4.03950000  *  -1.53290000  *  -0.11200000  *
    17       C         -3.72150000  *   0.62920000  *  -1.00680000  *
    18       C         -4.74720000  *  -0.03070000  *  -1.68860000  *
    19       C         -5.87090000  *  -0.47610000  *  -0.98440000  *
    20       C         -5.99310000  *  -0.24260000  *   0.38890000  *
    21       C         -4.96680000  *   0.41710000  *   1.06830000  *
    22       O         -3.13490000  *   2.41260000  *   1.92810000  *
    23       O          8.31820000  *  -1.16230000  *  -0.81890000  *
    24       O          8.04660000  *   1.35460000  *  -0.80080000  *
    25       O         -7.07910000  *  -0.98130000  *  -3.26120000  *
    26       O         -8.41500000  *  -1.11520000  *  -1.11310000  *
    27       S         -0.80130000  *  -0.31850000  *   0.48180000  *
    28       S          7.75840000  *   0.04670000  *  -0.26080000  *
    29       S         -7.18670000  *  -1.28190000  *  -1.85320000  *
    30       H          1.53240000  *  -1.57820000  *   0.00990000  *
    31       H          0.55280000  *   3.76150000  *   1.79050000  *
    32       H         -1.13650000  *   3.69960000  *   1.93660000  *
    33       H          8.86640000  *  -0.71230000  *   1.53300000  *
    34       H          8.68030000  *   0.98760000  *   1.55140000  *
    35       H         -6.58290000  *  -3.30010000  *  -2.61350000  *
    36       H         -7.48580000  *  -3.39240000  *  -1.16700000  *
    37       H          3.23330000  *   1.73710000  *   0.37570000  *
    38       H          5.65350000  *   1.97330000  *   0.18830000  *
    39       H          6.04050000  *  -2.28470000  *  -0.39110000  *
    40       H          3.60810000  *  -2.52730000  *  -0.20210000  *
    41       H         -2.86400000  *   0.99510000  *  -1.56750000  *
    42       H         -4.66900000  *  -0.18330000  *  -2.76330000  *
    43       H         -6.88080000  *  -0.56150000  *   0.93140000  *
    44       H         -5.06360000  *   0.61010000  *   2.13550000  *



          CARTESIAN COORDINATES 

    NO.       ATOM           X           Y           Z

     1         N          0.9567      1.5129      0.8485
     2         N          1.8226     -0.6310      0.2147
     3         N         -0.3110      3.3543      1.4475
     4         N          8.2574      0.0831      1.3416
     5         N         -6.7630     -2.8985     -1.6924
     6         C         -1.3609      1.2431      0.9111
     7         C         -0.2700      2.0646      1.0806
     8         C          0.8361      0.2485      0.5122
     9         C          3.2091     -0.4165      0.1035
    10         C         -2.7574      1.5533      1.1299
    11         C         -3.8210      0.8356      0.3767
    12         C          3.8224      0.8384      0.2152
    13         C          5.2112      0.9828      0.1092
    14         C          6.0087     -0.1419     -0.0963
    15         C          5.4283     -1.4030     -0.2169
    16         C          4.0395     -1.5329     -0.1120
    17         C         -3.7215      0.6292     -1.0068
    18         C         -4.7472     -0.0307     -1.6886
    19         C         -5.8709     -0.4761     -0.9844
    20         C         -5.9931     -0.2426      0.3889
    21         C         -4.9668      0.4171      1.0683
    22         O         -3.1349      2.4126      1.9281
    23         O          8.3182     -1.1623     -0.8189
    24         O          8.0466      1.3546     -0.8008
    25         O         -7.0791     -0.9813     -3.2612
    26         O         -8.4150     -1.1152     -1.1131
    27         S         -0.8013     -0.3185      0.4818
    28         S          7.7584      0.0467     -0.2608
    29         S         -7.1867     -1.2819     -1.8532
    30         H          1.5324     -1.5782      0.0099
    31         H          0.5528      3.7615      1.7905
    32         H         -1.1365      3.6996      1.9366
    33         H          8.8664     -0.7123      1.5330
    34         H          8.6803      0.9876      1.5514
    35         H         -6.5829     -3.3001     -2.6135
    36         H         -7.4858     -3.3924     -1.1670
    37         H          3.2333      1.7371      0.3757
    38         H          5.6535      1.9733      0.1883
    39         H          6.0405     -2.2847     -0.3911
    40         H          3.6081     -2.5273     -0.2021
    41         H         -2.8640      0.9951     -1.5675
    42         H         -4.6690     -0.1833     -2.7633
    43         H         -6.8808     -0.5615      0.9314
    44         H         -5.0636      0.6101      2.1355

 General Reference for PM7:
 "Optimization of Parameters for Semiempirical Methods VI: More Modifications to the 
 NDDO Approximations and Re-optimization of Parameters", J. J. P. Stewart, J. Mol. Mod., 1:32, 19 (2013)
 https://link.springer.com/article/10.1007/s00894-012-1667-x

           Empirical Formula: C16 H15 N5 O5 S3  =    44 atoms



      MOLECULAR POINT GROUP   :   C1  


      RHF CALCULATION, NO. OF DOUBLY OCCUPIED LEVELS = 76


          Geometry optimization using L-BFGS
 CYCLE:     1 TIME:   0.133 TIME LEFT:  2.00D  GRAD.:   168.236 HEAT: -93.48488
 CYCLE:     2 TIME:   0.031 TIME LEFT:  2.00D  GRAD.:   165.412 HEAT: -93.76561
 CYCLE:     3 TIME:   0.039 TIME LEFT:  2.00D  GRAD.:    49.856 HEAT: -104.2289
 CYCLE:     4 TIME:   0.047 TIME LEFT:  2.00D  GRAD.:   165.691 HEAT: -93.77082
 CYCLE:     5 TIME:   0.039 TIME LEFT:  2.00D  GRAD.:    49.970 HEAT: -104.2291
 CYCLE:     6 TIME:   0.035 TIME LEFT:  2.00D  GRAD.:    48.361 HEAT: -105.6003
 CYCLE:     7 TIME:   0.039 TIME LEFT:  2.00D  GRAD.:    38.970 HEAT: -107.1179
 CYCLE:     8 TIME:   0.035 TIME LEFT:  2.00D  GRAD.:    66.064 HEAT: -108.3136
 CYCLE:     9 TIME:   0.035 TIME LEFT:  2.00D  GRAD.:    30.736 HEAT: -109.2103
 CYCLE:    10 TIME:   0.035 TIME LEFT:  2.00D  GRAD.:    16.953 HEAT: -109.5136
 CYCLE:    11 TIME:   0.035 TIME LEFT:  2.00D  GRAD.:    13.192 HEAT: -109.7445
 CYCLE:    12 TIME:   0.039 TIME LEFT:  2.00D  GRAD.:    14.499 HEAT: -110.0086
 CYCLE:    13 TIME:   0.035 TIME LEFT:  2.00D  GRAD.:    33.877 HEAT: -110.0648
 CYCLE:    14 TIME:   0.035 TIME LEFT:  2.00D  GRAD.:    10.073 HEAT: -110.2996
 CYCLE:    15 TIME:   0.031 TIME LEFT:  2.00D  GRAD.:     8.248 HEAT: -110.3572
 CYCLE:    16 TIME:   0.031 TIME LEFT:  2.00D  GRAD.:    10.946 HEAT: -110.4738
 CYCLE:    17 TIME:   0.039 TIME LEFT:  2.00D  GRAD.:    13.908 HEAT: -110.6084
 CYCLE:    18 TIME:   0.035 TIME LEFT:  2.00D  GRAD.:    18.728 HEAT: -110.7046
 CYCLE:    19 TIME:   0.035 TIME LEFT:  2.00D  GRAD.:     8.645 HEAT: -110.8178
 CYCLE:    20 TIME:   0.031 TIME LEFT:  2.00D  GRAD.:     8.462 HEAT: -110.8851
 CYCLE:    21 TIME:   0.039 TIME LEFT:  2.00D  GRAD.:     9.623 HEAT: -110.9549
 CYCLE:    22 TIME:   0.035 TIME LEFT:  2.00D  GRAD.:    26.658 HEAT: -110.9704
 CYCLE:    23 TIME:   0.031 TIME LEFT:  2.00D  GRAD.:     7.459 HEAT: -111.0800
 CYCLE:    24 TIME:   0.035 TIME LEFT:  2.00D  GRAD.:     4.602 HEAT: -111.1024
 CYCLE:    25 TIME:   0.035 TIME LEFT:  2.00D  GRAD.:     4.885 HEAT: -111.1262
 CYCLE:    26 TIME:   0.035 TIME LEFT:  2.00D  GRAD.:     8.743 HEAT: -111.1681
 CYCLE:    27 TIME:   0.039 TIME LEFT:  2.00D  GRAD.:     8.306 HEAT: -111.2078
 CYCLE:    28 TIME:   0.031 TIME LEFT:  2.00D  GRAD.:     5.168 HEAT: -111.2443
 CYCLE:    29 TIME:   0.035 TIME LEFT:  2.00D  GRAD.:     5.318 HEAT: -111.2758
 CYCLE:    30 TIME:   0.035 TIME LEFT:  2.00D  GRAD.:     7.784 HEAT: -111.3080
 CYCLE:    31 TIME:   0.035 TIME LEFT:  2.00D  GRAD.:     6.880 HEAT: -111.3425
 CYCLE:    32 TIME:   0.035 TIME LEFT:  2.00D  GRAD.:     5.789 HEAT: -111.3697
 CYCLE:    33 TIME:   0.031 TIME LEFT:  2.00D  GRAD.:     6.252 HEAT: -111.3984
 CYCLE:    34 TIME:   0.035 TIME LEFT:  2.00D  GRAD.:     6.832 HEAT: -111.4378
 CYCLE:    35 TIME:   0.035 TIME LEFT:  2.00D  GRAD.:    12.151 HEAT: -111.4511
 CYCLE:    36 TIME:   0.035 TIME LEFT:  2.00D  GRAD.:     4.696 HEAT: -111.4860
 CYCLE:    37 TIME:   0.035 TIME LEFT:  2.00D  GRAD.:     3.966 HEAT: -111.5009
 CYCLE:    38 TIME:   0.031 TIME LEFT:  2.00D  GRAD.:     4.828 HEAT: -111.5282
 CYCLE:    39 TIME:   0.039 TIME LEFT:  2.00D  GRAD.:     9.779 HEAT: -111.5579
 CYCLE:    40 TIME:   0.035 TIME LEFT:  2.00D  GRAD.:     5.735 HEAT: -111.5905
 CYCLE:    41 TIME:   0.031 TIME LEFT:  2.00D  GRAD.:     4.203 HEAT: -111.6149
 CYCLE:    42 TIME:   0.039 TIME LEFT:  2.00D  GRAD.:     5.900 HEAT: -111.6338
 CYCLE:    43 TIME:   0.031 TIME LEFT:  2.00D  GRAD.:     6.440 HEAT: -111.6536
 CYCLE:    44 TIME:   0.035 TIME LEFT:  2.00D  GRAD.:     5.424 HEAT: -111.6816
 CYCLE:    45 TIME:   0.035 TIME LEFT:  2.00D  GRAD.:     9.370 HEAT: -111.7128
 CYCLE:    46 TIME:   0.035 TIME LEFT:  2.00D  GRAD.:     6.217 HEAT: -111.7433
 CYCLE:    47 TIME:   0.031 TIME LEFT:  2.00D  GRAD.:     5.584 HEAT: -111.7661
 CYCLE:    48 TIME:   0.039 TIME LEFT:  2.00D  GRAD.:     7.374 HEAT: -111.8163
 CYCLE:    49 TIME:   0.035 TIME LEFT:  2.00D  GRAD.:    15.773 HEAT: -111.8079
 CYCLE:    50 TIME:   0.035 TIME LEFT:  2.00D  GRAD.:     4.329 HEAT: -111.8520
 CYCLE:    51 TIME:   0.035 TIME LEFT:  2.00D  GRAD.:     2.870 HEAT: -111.8611
 CYCLE:    52 TIME:   0.031 TIME LEFT:  2.00D  GRAD.:     3.127 HEAT: -111.8742
 CYCLE:    53 TIME:   0.035 TIME LEFT:  2.00D  GRAD.:     6.019 HEAT: -111.8880
 CYCLE:    54 TIME:   0.039 TIME LEFT:  2.00D  GRAD.:     3.579 HEAT: -111.9016
 CYCLE:    55 TIME:   0.031 TIME LEFT:  2.00D  GRAD.:     3.152 HEAT: -111.9132
 CYCLE:    56 TIME:   0.039 TIME LEFT:  2.00D  GRAD.:     5.627 HEAT: -111.9341
 CYCLE:    57 TIME:   0.031 TIME LEFT:  2.00D  GRAD.:     5.697 HEAT: -111.9477
 CYCLE:    58 TIME:   0.035 TIME LEFT:  2.00D  GRAD.:     3.920 HEAT: -111.9613
 CYCLE:    59 TIME:   0.035 TIME LEFT:  2.00D  GRAD.:     3.726 HEAT: -111.9800
 CYCLE:    60 TIME:   0.035 TIME LEFT:  2.00D  GRAD.:     5.140 HEAT: -111.9927
 CYCLE:    61 TIME:   0.035 TIME LEFT:  2.00D  GRAD.:     4.519 HEAT: -112.0118
 CYCLE:    62 TIME:   0.039 TIME LEFT:  2.00D  GRAD.:     7.157 HEAT: -112.0304
 CYCLE:    63 TIME:   0.031 TIME LEFT:  2.00D  GRAD.:     3.863 HEAT: -112.0507
 CYCLE:    64 TIME:   0.035 TIME LEFT:  2.00D  GRAD.:     3.002 HEAT: -112.0609
 CYCLE:    65 TIME:   0.035 TIME LEFT:  2.00D  GRAD.:     2.704 HEAT: -112.0694
 CYCLE:    66 TIME:   0.031 TIME LEFT:  2.00D  GRAD.:     4.160 HEAT: -112.0778
 CYCLE:    67 TIME:   0.035 TIME LEFT:  2.00D  GRAD.:     2.431 HEAT: -112.0872
 CYCLE:    68 TIME:   0.035 TIME LEFT:  2.00D  GRAD.:     2.529 HEAT: -112.0937
 CYCLE:    69 TIME:   0.035 TIME LEFT:  2.00D  GRAD.:     4.542 HEAT: -112.0986
 CYCLE:    70 TIME:   0.031 TIME LEFT:  2.00D  GRAD.:     2.691 HEAT: -112.1054
 CYCLE:    71 TIME:   0.035 TIME LEFT:  2.00D  GRAD.:     2.106 HEAT: -112.1124
 CYCLE:    72 TIME:   0.031 TIME LEFT:  2.00D  GRAD.:     2.779 HEAT: -112.1178
 CYCLE:    73 TIME:   0.039 TIME LEFT:  2.00D  GRAD.:     3.147 HEAT: -112.1251
 CYCLE:    74 TIME:   0.031 TIME LEFT:  2.00D  GRAD.:     2.938 HEAT: -112.1311
 CYCLE:    75 TIME:   0.035 TIME LEFT:  2.00D  GRAD.:     2.622 HEAT: -112.1366
 CYCLE:    76 TIME:   0.039 TIME LEFT:  2.00D  GRAD.:     3.593 HEAT: -112.1422
 CYCLE:    77 TIME:   0.031 TIME LEFT:  2.00D  GRAD.:     2.969 HEAT: -112.1478
 CYCLE:    78 TIME:   0.035 TIME LEFT:  2.00D  GRAD.:     2.573 HEAT: -112.1531
 CYCLE:    79 TIME:   0.035 TIME LEFT:  2.00D  GRAD.:     3.414 HEAT: -112.1603
 CYCLE:    80 TIME:   0.035 TIME LEFT:  2.00D  GRAD.:     3.908 HEAT: -112.1640
 CYCLE:    81 TIME:   0.035 TIME LEFT:  2.00D  GRAD.:     1.907 HEAT: -112.1676
 CYCLE:    82 TIME:   0.109 TIME LEFT:  2.00D  GRAD.:     1.644 HEAT: -112.1708
 CYCLE:    83 TIME:   0.043 TIME LEFT:  2.00D  GRAD.:     1.992 HEAT: -112.1742
 CYCLE:    84 TIME:   0.039 TIME LEFT:  2.00D  GRAD.:     2.680 HEAT: -112.1800
 CYCLE:    85 TIME:   0.035 TIME LEFT:  2.00D  GRAD.:     5.228 HEAT: -112.1802
 CYCLE:    86 TIME:   0.035 TIME LEFT:  2.00D  GRAD.:     1.489 HEAT: -112.1859
 CYCLE:    87 TIME:   0.035 TIME LEFT:  2.00D  GRAD.:     1.265 HEAT: -112.1874
 CYCLE:    88 TIME:   0.035 TIME LEFT:  2.00D  GRAD.:     1.881 HEAT: -112.1908
 CYCLE:    89 TIME:   0.039 TIME LEFT:  2.00D  GRAD.:     2.807 HEAT: -112.1948
 CYCLE:    90 TIME:   0.031 TIME LEFT:  2.00D  GRAD.:     2.141 HEAT: -112.1994
 CYCLE:    91 TIME:   0.035 TIME LEFT:  2.00D  GRAD.:     1.682 HEAT: -112.2033
 CYCLE:    92 TIME:   0.035 TIME LEFT:  2.00D  GRAD.:     2.741 HEAT: -112.2077
 CYCLE:    93 TIME:   0.035 TIME LEFT:  2.00D  GRAD.:     2.439 HEAT: -112.2107
 CYCLE:    94 TIME:   0.031 TIME LEFT:  2.00D  GRAD.:     1.866 HEAT: -112.2135
 CYCLE:    95 TIME:   0.039 TIME LEFT:  2.00D  GRAD.:     2.122 HEAT: -112.2166
 CYCLE:    96 TIME:   0.031 TIME LEFT:  2.00D  GRAD.:     3.378 HEAT: -112.2180
 CYCLE:    97 TIME:   0.035 TIME LEFT:  2.00D  GRAD.:     1.758 HEAT: -112.2199
 CYCLE:    98 TIME:   0.031 TIME LEFT:  2.00D  GRAD.:     1.216 HEAT: -112.2218
 CYCLE:    99 TIME:   0.039 TIME LEFT:  2.00D  GRAD.:     1.544 HEAT: -112.2233
 CYCLE:   100 TIME:   0.035 TIME LEFT:  2.00D  GRAD.:     1.767 HEAT: -112.2265
 CYCLE:   101 TIME:   0.039 TIME LEFT:  2.00D  GRAD.:     2.468 HEAT: -112.2310
 CYCLE:   102 TIME:   0.035 TIME LEFT:  2.00D  GRAD.:     2.153 HEAT: -112.2359
 CYCLE:   103 TIME:   0.035 TIME LEFT:  2.00D  GRAD.:     2.487 HEAT: -112.2396
 CYCLE:   104 TIME:   0.039 TIME LEFT:  2.00D  GRAD.:     2.615 HEAT: -112.2422
 CYCLE:   105 TIME:   0.035 TIME LEFT:  2.00D  GRAD.:     3.483 HEAT: -112.2444
 CYCLE:   106 TIME:   0.035 TIME LEFT:  2.00D  GRAD.:     6.266 HEAT: -112.2509
 CYCLE:   107 TIME:   0.031 TIME LEFT:  2.00D  GRAD.:     8.478 HEAT: -112.2322
 CYCLE:   108 TIME:   0.035 TIME LEFT:  2.00D  GRAD.:     4.778 HEAT: -112.2521
 CYCLE:   109 TIME:   0.035 TIME LEFT:  2.00D  GRAD.:     2.713 HEAT: -112.2574
 CYCLE:   110 TIME:   0.035 TIME LEFT:  2.00D  GRAD.:    11.024 HEAT: -112.2365
 CYCLE:   111 TIME:   0.035 TIME LEFT:  2.00D  GRAD.:     1.172 HEAT: -112.2602
 CYCLE:   112 TIME:   0.039 TIME LEFT:  2.00D  GRAD.:     1.382 HEAT: -112.2569
 CYCLE:   113 TIME:   0.039 TIME LEFT:  2.00D  GRAD.:     3.118 HEAT: -112.2611
 CYCLE:   114 TIME:   0.039 TIME LEFT:  2.00D  GRAD.:     4.698 HEAT: -112.2602
 CYCLE:   115 TIME:   0.031 TIME LEFT:  2.00D  GRAD.:     0.934 HEAT: -112.2651

 -------------------------------------------------------------------------------
 PM7 CHARGE=0




     HERBERTS TEST WAS SATISFIED IN BFGS                      
     SCF FIELD WAS ACHIEVED                                   


                              PM7 CALCULATION
                                                       MOPAC v23.2.2 Linux
                                                       Wed Mar 18 11:58:33 2026




          FINAL HEAT OF FORMATION =       -112.26508 KCAL/MOL =    -469.71711 KJ/MOL


          COSMO AREA              =        413.24 SQUARE ANGSTROMS
          COSMO VOLUME            =        461.17 CUBIC ANGSTROMS

          GRADIENT NORM           =          0.93414          =       0.14083 PER ATOM
          IONIZATION POTENTIAL    =          8.889052 EV
          HOMO LUMO ENERGIES (EV) =         -8.889 -1.469
          NO. OF FILLED LEVELS    =         76
          MOLECULAR WEIGHT        =        453.5050         POINT GROUP:  C1  

          MOLECULAR DIMENSIONS (Angstroms)

            Atom       Atom       Distance
            H    33    O    26    17.49170
            H    35    H    32     7.72670
            H    44    O    24     4.21588


          SCF CALCULATIONS        =        116

          WALL-CLOCK TIME         =      4.266 SECONDS
          COMPUTATION TIME        =          1 MINUTE AND 41.784 SECONDS




   ATOM   CHEMICAL          X               Y               Z
  NUMBER   SYMBOL      (ANGSTROMS)     (ANGSTROMS)     (ANGSTROMS)

     1       N          0.99857722  *   1.29907600  *   0.99538692  *
     2       N          1.83360022  *  -0.75506569  *   0.07317989  *
     3       N         -0.25897938  *   3.13816280  *   1.78911216  *
     4       N          8.29917740  *   0.07057162  *   1.42681842  *
     5       N         -6.70780300  *  -2.95733654  *  -1.59630567  *
     6       C         -1.37651479  *   1.22050071  *   0.75001129  *
     7       C         -0.24402382  *   1.92792203  *   1.19977673  *
     8       C          0.84014204  *   0.10918091  *   0.42624550  *
     9       C          3.22368041  *  -0.48293064  *   0.07945970  *
    10       C         -2.70218906  *   1.74707298  *   0.81485207  *
    11       C         -3.81472417  *   0.98224440  *   0.18518817  *
    12       C          3.76200221  *   0.80123413  *   0.21415448  *
    13       C          5.14058251  *   0.97759867  *   0.13598454  *
    14       C          5.98338917  *  -0.11357961  *  -0.06762544  *
    15       C          5.44632163  *  -1.39559639  *  -0.18949834  *
    16       C          4.07310779  *  -1.58992134  *  -0.11711091  *
    17       C         -3.85671887  *   0.82480920  *  -1.19892905  *
    18       C         -4.91482955  *   0.12561278  *  -1.77689684  *
    19       C         -5.91792483  *  -0.40523208  *  -0.96778866  *
    20       C         -5.88554248  *  -0.22339282  *   0.41367276  *
    21       C         -4.82801412  *   0.47387903  *   0.99505308  *
    22       O         -2.94237051  *   2.81156998  *   1.36318895  *
    23       O          8.28632891  *  -1.02101772  *  -0.86740620  *
    24       O          7.95259098  *   1.48066851  *  -0.65565246  *
    25       O         -7.30132371  *  -0.99523199  *  -3.10006115  *
    26       O         -8.39246048  *  -1.21922783  *  -0.82721277  *
    27       S         -0.89949447  *  -0.32520413  *   0.11181652  *
    28       S          7.71246632  *   0.12891777  *  -0.20817524  *
    29       S         -7.23960124  *  -1.30369674  *  -1.69126933  *
    30       H          1.56423658  *  -1.69773917  *  -0.21654974  *
    31       H          0.58502504  *   3.59015939  *   2.07876514  *
    32       H         -1.15626248  *   3.59349966  *   1.94024769  *
    33       H          8.91394343  *  -0.69286386  *   1.65691763  *
    34       H          8.65150419  *   0.93273163  *   1.80929005  *
    35       H         -6.52858959  *  -3.42454336  *  -2.46936010  *
    36       H         -7.21892839  *  -3.55997565  *  -0.97266890  *
    37       H          3.11867429  *   1.66989174  *   0.37545988  *
    38       H          5.54600937  *   1.99460803  *   0.22318388  *
    39       H          6.09762970  *  -2.26403197  *  -0.35576758  *
    40       H          3.66502011  *  -2.59239534  *  -0.21246229  *
    41       H         -3.07569407  *   1.25230922  *  -1.82728683  *
    42       H         -4.94743215  *   0.01096065  *  -2.86665401  *
    43       H         -6.68767758  *  -0.60766335  *   1.05404263  *
    44       H         -4.79690364  *   0.63246251  *   2.07302015  *

                             CARTESIAN COORDINATES

   1    N        0.998577220     1.299076001     0.995386916
   2    N        1.833600217    -0.755065692     0.073179889
   3    N       -0.258979378     3.138162803     1.789112155
   4    N        8.299177400     0.070571622     1.426818423
   5    N       -6.707803000    -2.957336540    -1.596305671
   6    C       -1.376514794     1.220500709     0.750011288
   7    C       -0.244023818     1.927922034     1.199776731
   8    C        0.840142042     0.109180907     0.426245501
   9    C        3.223680408    -0.482930640     0.079459705
  10    C       -2.702189059     1.747072977     0.814852071
  11    C       -3.814724167     0.982244401     0.185188170
  12    C        3.762002214     0.801234129     0.214154479
  13    C        5.140582511     0.977598673     0.135984542
  14    C        5.983389174    -0.113579612    -0.067625438
  15    C        5.446321630    -1.395596392    -0.189498341
  16    C        4.073107794    -1.589921338    -0.117110913
  17    C       -3.856718873     0.824809205    -1.198929051
  18    C       -4.914829550     0.125612778    -1.776896836
  19    C       -5.917924833    -0.405232080    -0.967788663
  20    C       -5.885542479    -0.223392824     0.413672760
  21    C       -4.828014116     0.473879034     0.995053084
  22    O       -2.942370508     2.811569976     1.363188950
  23    O        8.286328912    -1.021017720    -0.867406198
  24    O        7.952590985     1.480668514    -0.655652464
  25    O       -7.301323705    -0.995231985    -3.100061149
  26    O       -8.392460480    -1.219227826    -0.827212766
  27    S       -0.899494472    -0.325204131     0.111816519
  28    S        7.712466324     0.128917768    -0.208175245
  29    S       -7.239601237    -1.303696742    -1.691269335
  30    H        1.564236576    -1.697739174    -0.216549736
  31    H        0.585025042     3.590159393     2.078765135
  32    H       -1.156262478     3.593499659     1.940247692
  33    H        8.913943433    -0.692863861     1.656917628
  34    H        8.651504189     0.932731630     1.809290045
  35    H       -6.528589590    -3.424543358    -2.469360095
  36    H       -7.218928391    -3.559975652    -0.972668902
  37    H        3.118674288     1.669891735     0.375459881
  38    H        5.546009373     1.994608027     0.223183879
  39    H        6.097629703    -2.264031972    -0.355767581
  40    H        3.665020107    -2.592395343    -0.212462294
  41    H       -3.075694075     1.252309219    -1.827286833
  42    H       -4.947432148     0.010960650    -2.866654012
  43    H       -6.687677578    -0.607663354     1.054042625
  44    H       -4.796903639     0.632462505     2.073020152


           Empirical Formula: C16 H15 N5 O5 S3  =    44 atoms



      MOLECULAR POINT GROUP   :   C1  


                  EIGENVALUES  
 -38.69592 -38.11736 -36.10163 -36.05538 -35.97811 -31.47934 -31.32984 -30.75757
 -29.43700 -29.36471 -28.52276 -27.99518 -27.90514 -26.86420 -26.76516 -26.46558
 -26.34804 -24.91081 -23.65184 -22.70263 -22.40473 -21.72434 -21.51977 -20.57564
 -19.91420 -19.72633 -19.70525 -18.82538 -18.07685 -17.67077 -17.16244 -17.11099
 -17.07909 -16.72021 -16.50002 -16.39969 -16.08952 -15.99395 -15.86802 -15.72571
 -15.66752 -15.50032 -15.20375 -15.10865 -14.91499 -14.80154 -14.52957 -14.13550
 -14.12229 -13.95899 -13.89891 -13.77209 -13.58081 -13.27518 -12.84383 -12.66441
 -12.52936 -12.46323 -12.37073 -11.84033 -11.74344 -11.72642 -11.62732 -11.62465
 -11.54378 -11.43246 -11.14785 -10.89381 -10.72392 -10.68484 -10.66738 -10.53060
 -10.42718 -10.35276  -9.85066  -8.88905  -1.46889  -1.12723  -0.82294  -0.59895
  -0.55963  -0.54867  -0.28259   0.05259   0.05998   0.24338   0.46999   0.65246
   0.67987   0.76539   1.03725   1.31062   1.54403   1.58739   1.79835   1.98513
   2.57977   2.58727   2.66189   2.73591   2.85438   2.90769   2.94442   3.14263
   3.23072   3.45364   3.54782   3.80578   3.88880   3.92162   4.05277   4.23128
   4.24050   4.29835   4.36499   4.45102   4.47622   4.55775   4.58736   4.64185
   4.67388   4.68721   4.72143   4.79177   4.93184   4.97034   5.04214   5.12439
   5.24224   5.30744   5.31225   5.33633   5.38654   5.42441   5.48347   5.59345
   5.71568   5.80294   5.83363   5.94526   6.03139   6.30455   6.34470   6.38819
   6.60668   6.69644


              NET ATOMIC CHARGES AND DIPOLE CONTRIBUTIONS

  ATOM NO.   TYPE          CHARGE      No. of ELECS.   s-Pop       p-Pop       d-Pop       
    1          N          -0.572306        5.5723     1.76857     3.80373
    2          N          -0.465665        5.4657     1.52010     3.94557
    3          N          -0.523009        5.5230     1.50982     4.01319
    4          N          -0.942593        5.9426     1.65690     4.28570
    5          N          -0.949124        5.9491     1.65740     4.29172
    6          C          -0.603621        4.6036     1.05734     3.54628
    7          C           0.507500        3.4925     1.05311     2.43939
    8          C           0.344967        3.6550     1.10934     2.54569
    9          C           0.250213        3.7498     1.06304     2.68675
   10          C           0.521926        3.4781     1.08411     2.39396
   11          C          -0.071923        4.0719     1.08439     2.98754
   12          C          -0.241136        4.2411     1.08353     3.15760
   13          C          -0.010256        4.0103     1.09177     2.91848
   14          C          -0.419510        4.4195     1.10696     3.31255
   15          C          -0.011902        4.0119     1.08970     2.92220
   16          C          -0.281906        4.2819     1.07607     3.20583
   17          C          -0.154064        4.1541     1.08279     3.07127
   18          C          -0.070390        4.0704     1.08905     2.98134
   19          C          -0.358211        4.3582     1.11175     3.24646
   20          C          -0.072345        4.0723     1.08913     2.98322
   21          C          -0.140710        4.1407     1.08361     3.05710
   22          O          -0.523526        6.5235     1.88196     4.64157
   23          O          -0.917488        6.9175     1.89276     5.02473
   24          O          -0.914167        6.9142     1.89283     5.02133
   25          O          -0.911984        6.9120     1.89261     5.01937
   26          O          -0.908800        6.9088     1.89268     5.01612
   27          S           0.165563        5.8344     1.89218     3.81192     0.13034
   28          S           2.357880        3.6421     1.16968     1.96899     0.50345
   29          S           2.344665        3.6553     1.17324     1.97540     0.50670
   30          H           0.331078        0.6689     0.66892
   31          H           0.321465        0.6785     0.67853
   32          H           0.353982        0.6460     0.64602
   33          H           0.293997        0.7060     0.70600
   34          H           0.293870        0.7061     0.70613
   35          H           0.293495        0.7065     0.70650
   36          H           0.294016        0.7060     0.70598
   37          H           0.201470        0.7985     0.79853
   38          H           0.175800        0.8242     0.82420
   39          H           0.175928        0.8241     0.82407
   40          H           0.159801        0.8402     0.84020
   41          H           0.163125        0.8369     0.83688
   42          H           0.174410        0.8256     0.82559
   43          H           0.174258        0.8257     0.82574
   44          H           0.165227        0.8348     0.83477
 DIPOLE           X         Y         Z       TOTAL
 POINT-CHG.     3.742    -3.568     3.475     6.230
 HYBRID        -0.293     0.238     0.337     0.506
 SUM            3.449    -3.330     3.813     6.125


          ATOMIC ORBITAL ELECTRON POPULATIONS

     Atom    s        px        py        pz      x^2-y^2     xz        z^2       yz        xy
    1  N   1.76857   1.29004   1.16799   1.34571
    2  N   1.52010   1.11027   1.21559   1.61971
    3  N   1.50982   1.23155   1.22361   1.55802
    4  N   1.65690   1.62257   1.25249   1.41064
    5  N   1.65740   1.69712   1.25955   1.33506
    6  C   1.05734   1.04749   1.07310   1.42569
    7  C   1.05311   0.84061   0.80771   0.79107
    8  C   1.10934   0.87064   0.84129   0.83377
    9  C   1.06304   0.77736   0.98638   0.92300
   10  C   1.08411   0.87751   0.79960   0.71686
   11  C   1.08439   1.00346   0.98419   0.99989
   12  C   1.08353   1.03480   1.04643   1.07637
   13  C   1.09177   0.97775   1.05772   0.88302
   14  C   1.10696   1.11181   1.02660   1.17414
   15  C   1.08970   1.00166   1.03120   0.88934
   16  C   1.07607   1.01384   1.06000   1.13199
   17  C   1.08279   1.04856   1.01758   1.00513
   18  C   1.08905   0.95537   0.94591   1.08007
   19  C   1.11175   1.09614   1.11322   1.03710
   20  C   1.08913   1.02401   0.96280   0.99641
   21  C   1.08361   0.97610   0.99692   1.08408
   22  O   1.88196   1.86858   1.31742   1.45556
   23  O   1.89276   1.77325   1.51896   1.73252
   24  O   1.89283   1.82922   1.41178   1.78034
   25  O   1.89261   1.82486   1.80891   1.38561
   26  O   1.89268   1.54646   1.82588   1.64378
   27  S   1.89218   0.89445   1.19637   1.72111   0.04913   0.02080   0.02097   0.02531   0.01413
   28  S   1.16968   0.71220   0.63088   0.62590   0.16130   0.04367   0.09930   0.10498   0.09419
   29  S   1.17324   0.66972   0.66233   0.64335   0.07195   0.14066   0.14417   0.07848   0.07144
   30  H   0.66892
   31  H   0.67853
   32  H   0.64602
   33  H   0.70600
   34  H   0.70613
   35  H   0.70650
   36  H   0.70598
   37  H   0.79853
   38  H   0.82420
   39  H   0.82407
   40  H   0.84020
   41  H   0.83688
   42  H   0.82559
   43  H   0.82574
   44  H   0.83477

 **********************
 *                    *
 * JOB ENDED NORMALLY *
 *                    *
 **********************



 TOTAL JOB TIME:             4.27 SECONDS

 == MOPAC DONE ==
