 *******************************************************************************
 **                                                                           **
 **                              MOPAC v23.2.2                                **
 **                                                                           **
 *******************************************************************************
 **          Digital Object Identifier (DOI): 10.5281/zenodo.6511958          **
 **    Visit the DOI location for information on how to cite this program.    **
 *******************************************************************************

                              PM7 CALCULATION RESULTS

 *******************************************************************************
 *  CALCULATION DONE: (MAX THREADS = 24)             Wed Mar 18 11:58:37 2026  *
 *  PM7        - The PM7 Hamiltonian to be used
 *
 *
 *
 *                 CHARGE ON SYSTEM = 0
 *
 *
 *
 *  T=         - A TIME OF 172800.0 SECONDS REQUESTED
 *  DUMP=N     - RESTART FILE WRITTEN EVERY 7200.0 SECONDS REQUESTED
 *******************************************************************************
PM7 CHARGE=0


   ATOM   CHEMICAL          X               Y               Z
  NUMBER   SYMBOL      (ANGSTROMS)     (ANGSTROMS)     (ANGSTROMS)

     1       N          1.05320000  *  -1.36190000  *   0.90350000  *
     2       N          1.83150000  *   0.16850000  *  -0.76870000  *
     3       N         -0.13440000  *  -2.75600000  *   2.31870000  *
     4       N          7.99020000  *   1.12580000  *   1.22180000  *
     5       N         -7.03630000  *   2.20740000  *  -2.00160000  *
     6       C         -1.26390000  *  -1.43790000  *   0.63570000  *
     7       C         -0.14500000  *  -1.87710000  *   1.30560000  *
     8       C          0.88430000  *  -0.53640000  *  -0.10430000  *
     9       C          3.23140000  *   0.14120000  *  -0.62400000  *
    10       C         -2.63860000  *  -1.84780000  *   0.82650000  *
    11       C         -3.75950000  *  -0.91910000  *   0.51460000  *
    12       C          3.99390000  *   1.06620000  *  -1.36260000  *
    13       C          5.38740000  *   1.11960000  *  -1.25340000  *
    14       C          6.03770000  *   0.24470000  *  -0.38610000  *
    15       C          5.31060000  *  -0.68650000  *   0.35400000  *
    16       C          3.91640000  *  -0.72590000  *   0.23790000  *
    17       C         -4.89510000  *  -1.43100000  *  -0.13000000  *
    18       C         -5.97670000  *  -0.59470000  *  -0.41410000  *
    19       C         -5.91940000  *   0.75330000  *  -0.04620000  *
    20       C         -4.80520000  *   1.26620000  *   0.62530000  *
    21       C         -3.72500000  *   0.42640000  *   0.90980000  *
    22       O         -2.95060000  *  -2.96020000  *   1.25420000  *
    23       O          8.33150000  *   1.16670000  *  -1.24830000  *
    24       O          8.27760000  *  -1.05790000  *  -0.03630000  *
    25       O         -7.14530000  *   3.03370000  *   0.34930000  *
    26       O         -8.50820000  *   1.00520000  *  -0.32440000  *
    27       S         -0.76780000  *  -0.35420000  *  -0.59540000  *
    28       S          7.80180000  *   0.29050000  *  -0.22850000  *
    29       S         -7.30890000  *   1.80390000  *  -0.39070000  *
    30       H          1.50560000  *   0.75620000  *  -1.52500000  *
    31       H          0.75580000  *  -3.18800000  *   2.54400000  *
    32       H         -0.92320000  *  -3.39390000  *   2.42490000  *
    33       H          8.45960000  *   2.01310000  *   1.03330000  *
    34       H          7.11610000  *   1.25590000  *   1.72980000  *
    35       H         -6.88240000  *   3.21510000  *  -2.07010000  *
    36       H         -6.28850000  *   1.67240000  *  -2.43940000  *
    37       H          3.50440000  *   1.76280000  *  -2.04020000  *
    38       H          5.94690000  *   1.84000000  *  -1.84620000  *
    39       H          5.81400000  *  -1.38750000  *   1.01750000  *
    40       H          3.38240000  *  -1.46440000  *   0.82990000  *
    41       H         -4.94340000  *  -2.48520000  *  -0.39980000  *
    42       H         -6.86120000  *  -1.00120000  *  -0.90260000  *
    43       H         -4.77700000  *   2.30640000  *   0.94570000  *
    44       H         -2.87670000  *   0.82560000  *   1.46230000  *



          CARTESIAN COORDINATES 

    NO.       ATOM           X           Y           Z

     1         N          1.0532     -1.3619      0.9035
     2         N          1.8315      0.1685     -0.7687
     3         N         -0.1344     -2.7560      2.3187
     4         N          7.9902      1.1258      1.2218
     5         N         -7.0363      2.2074     -2.0016
     6         C         -1.2639     -1.4379      0.6357
     7         C         -0.1450     -1.8771      1.3056
     8         C          0.8843     -0.5364     -0.1043
     9         C          3.2314      0.1412     -0.6240
    10         C         -2.6386     -1.8478      0.8265
    11         C         -3.7595     -0.9191      0.5146
    12         C          3.9939      1.0662     -1.3626
    13         C          5.3874      1.1196     -1.2534
    14         C          6.0377      0.2447     -0.3861
    15         C          5.3106     -0.6865      0.3540
    16         C          3.9164     -0.7259      0.2379
    17         C         -4.8951     -1.4310     -0.1300
    18         C         -5.9767     -0.5947     -0.4141
    19         C         -5.9194      0.7533     -0.0462
    20         C         -4.8052      1.2662      0.6253
    21         C         -3.7250      0.4264      0.9098
    22         O         -2.9506     -2.9602      1.2542
    23         O          8.3315      1.1667     -1.2483
    24         O          8.2776     -1.0579     -0.0363
    25         O         -7.1453      3.0337      0.3493
    26         O         -8.5082      1.0052     -0.3244
    27         S         -0.7678     -0.3542     -0.5954
    28         S          7.8018      0.2905     -0.2285
    29         S         -7.3089      1.8039     -0.3907
    30         H          1.5056      0.7562     -1.5250
    31         H          0.7558     -3.1880      2.5440
    32         H         -0.9232     -3.3939      2.4249
    33         H          8.4596      2.0131      1.0333
    34         H          7.1161      1.2559      1.7298
    35         H         -6.8824      3.2151     -2.0701
    36         H         -6.2885      1.6724     -2.4394
    37         H          3.5044      1.7628     -2.0402
    38         H          5.9469      1.8400     -1.8462
    39         H          5.8140     -1.3875      1.0175
    40         H          3.3824     -1.4644      0.8299
    41         H         -4.9434     -2.4852     -0.3998
    42         H         -6.8612     -1.0012     -0.9026
    43         H         -4.7770      2.3064      0.9457
    44         H         -2.8767      0.8256      1.4623

 General Reference for PM7:
 "Optimization of Parameters for Semiempirical Methods VI: More Modifications to the 
 NDDO Approximations and Re-optimization of Parameters", J. J. P. Stewart, J. Mol. Mod., 1:32, 19 (2013)
 https://link.springer.com/article/10.1007/s00894-012-1667-x

           Empirical Formula: C16 H15 N5 O5 S3  =    44 atoms



      MOLECULAR POINT GROUP   :   C1  


      RHF CALCULATION, NO. OF DOUBLY OCCUPIED LEVELS = 76


          Geometry optimization using L-BFGS
 CYCLE:     1 TIME:   0.074 TIME LEFT:  2.00D  GRAD.:   167.606 HEAT: -85.10689
 CYCLE:     2 TIME:   0.027 TIME LEFT:  2.00D  GRAD.:   164.596 HEAT: -85.38530
 CYCLE:     3 TIME:   0.027 TIME LEFT:  2.00D  GRAD.:    48.228 HEAT: -95.21778
 CYCLE:     4 TIME:   0.027 TIME LEFT:  2.00D  GRAD.:   164.724 HEAT: -85.38932
 CYCLE:     5 TIME:   0.027 TIME LEFT:  2.00D  GRAD.:    48.242 HEAT: -95.21878
 CYCLE:     6 TIME:   0.027 TIME LEFT:  2.00D  GRAD.:    43.978 HEAT: -96.62525
 CYCLE:     7 TIME:   0.027 TIME LEFT:  2.00D  GRAD.:    42.188 HEAT: -98.40248
 CYCLE:     8 TIME:   0.023 TIME LEFT:  2.00D  GRAD.:    61.111 HEAT: -99.39179
 CYCLE:     9 TIME:   0.027 TIME LEFT:  2.00D  GRAD.:    29.341 HEAT: -100.2188
 CYCLE:    10 TIME:   0.027 TIME LEFT:  2.00D  GRAD.:    19.402 HEAT: -100.7280
 CYCLE:    11 TIME:   0.023 TIME LEFT:  2.00D  GRAD.:    18.858 HEAT: -101.0067
 CYCLE:    12 TIME:   0.035 TIME LEFT:  2.00D  GRAD.:    39.729 HEAT: -101.3737
 CYCLE:    13 TIME:   0.027 TIME LEFT:  2.00D  GRAD.:    15.789 HEAT: -101.7729
 CYCLE:    14 TIME:   0.023 TIME LEFT:  2.00D  GRAD.:    13.497 HEAT: -101.9183
 CYCLE:    15 TIME:   0.027 TIME LEFT:  2.00D  GRAD.:    16.580 HEAT: -102.2331
 CYCLE:    16 TIME:   0.023 TIME LEFT:  2.00D  GRAD.:    37.432 HEAT: -102.3205
 CYCLE:    17 TIME:   0.027 TIME LEFT:  2.00D  GRAD.:    14.723 HEAT: -102.5922
 CYCLE:    18 TIME:   0.023 TIME LEFT:  2.00D  GRAD.:     9.833 HEAT: -102.7380
 CYCLE:    19 TIME:   0.027 TIME LEFT:  2.00D  GRAD.:    11.497 HEAT: -102.8602
 CYCLE:    20 TIME:   0.027 TIME LEFT:  2.00D  GRAD.:    12.504 HEAT: -103.0445
 CYCLE:    21 TIME:   0.027 TIME LEFT:  2.00D  GRAD.:    26.300 HEAT: -103.1243
 CYCLE:    22 TIME:   0.023 TIME LEFT:  2.00D  GRAD.:     9.088 HEAT: -103.2927
 CYCLE:    23 TIME:   0.027 TIME LEFT:  2.00D  GRAD.:    10.158 HEAT: -103.3587
 CYCLE:    24 TIME:   0.027 TIME LEFT:  2.00D  GRAD.:    13.506 HEAT: -103.6240
 CYCLE:    25 TIME:   0.027 TIME LEFT:  2.00D  GRAD.:    16.617 HEAT: -103.8849
 CYCLE:    26 TIME:   0.027 TIME LEFT:  2.00D  GRAD.:    22.501 HEAT: -104.1057
 CYCLE:    27 TIME:   0.027 TIME LEFT:  2.00D  GRAD.:    54.224 HEAT: -103.9015
 CYCLE:    28 TIME:   0.031 TIME LEFT:  2.00D  GRAD.:    24.423 HEAT: -104.3037
 CYCLE:    29 TIME:   0.027 TIME LEFT:  2.00D  GRAD.:    32.917 HEAT: -104.5331
 CYCLE:    30 TIME:   0.027 TIME LEFT:  2.00D  GRAD.:   203.132 HEAT: -97.32752
 CYCLE:    31 TIME:   0.031 TIME LEFT:  2.00D  GRAD.:    78.685 HEAT: -103.5342
 CYCLE:    32 TIME:   0.027 TIME LEFT:  2.00D  GRAD.:    89.847 HEAT: -103.0037
 CYCLE:    33 TIME:   0.031 TIME LEFT:  2.00D  GRAD.:    34.177 HEAT: -104.8677
 CYCLE:    34 TIME:   0.035 TIME LEFT:  2.00D  GRAD.:   241.222 HEAT: -95.19637
 CYCLE:    35 TIME:   0.035 TIME LEFT:  2.00D  GRAD.:    44.904 HEAT: -106.0391
 CYCLE:    36 TIME:   0.035 TIME LEFT:  2.00D  GRAD.:    27.808 HEAT: -106.1600
 CYCLE:    37 TIME:   0.035 TIME LEFT:  2.00D  GRAD.:    14.901 HEAT: -106.6105
 CYCLE:    38 TIME:   0.031 TIME LEFT:  2.00D  GRAD.:    13.986 HEAT: -106.8174
 CYCLE:    39 TIME:   0.039 TIME LEFT:  2.00D  GRAD.:    17.590 HEAT: -107.3060
 CYCLE:    40 TIME:   0.035 TIME LEFT:  2.00D  GRAD.:    63.486 HEAT: -107.0009
 CYCLE:    41 TIME:   0.035 TIME LEFT:  2.00D  GRAD.:    17.488 HEAT: -107.6859
 CYCLE:    42 TIME:   0.035 TIME LEFT:  2.00D  GRAD.:     9.552 HEAT: -107.7935
 CYCLE:    43 TIME:   0.035 TIME LEFT:  2.00D  GRAD.:    17.017 HEAT: -107.9666
 CYCLE:    44 TIME:   0.035 TIME LEFT:  2.00D  GRAD.:    17.348 HEAT: -108.1562
 CYCLE:    45 TIME:   0.035 TIME LEFT:  2.00D  GRAD.:    16.393 HEAT: -108.3982
 CYCLE:    46 TIME:   0.035 TIME LEFT:  2.00D  GRAD.:    11.891 HEAT: -108.5498
 CYCLE:    47 TIME:   0.035 TIME LEFT:  2.00D  GRAD.:    11.902 HEAT: -108.6842
 CYCLE:    48 TIME:   0.035 TIME LEFT:  2.00D  GRAD.:    19.435 HEAT: -108.8528
 CYCLE:    49 TIME:   0.035 TIME LEFT:  2.00D  GRAD.:    15.224 HEAT: -109.0122
 CYCLE:    50 TIME:   0.031 TIME LEFT:  2.00D  GRAD.:    12.072 HEAT: -109.1440
 CYCLE:    51 TIME:   0.031 TIME LEFT:  2.00D  GRAD.:    15.329 HEAT: -109.3932
 CYCLE:    52 TIME:   0.035 TIME LEFT:  2.00D  GRAD.:    31.082 HEAT: -109.5626
 CYCLE:    53 TIME:   0.035 TIME LEFT:  2.00D  GRAD.:    17.416 HEAT: -109.8192
 CYCLE:    54 TIME:   0.035 TIME LEFT:  2.00D  GRAD.:    13.720 HEAT: -110.1159
 CYCLE:    55 TIME:   0.035 TIME LEFT:  2.00D  GRAD.:    14.172 HEAT: -110.2834
 CYCLE:    56 TIME:   0.035 TIME LEFT:  2.00D  GRAD.:    17.061 HEAT: -110.4403
 CYCLE:    57 TIME:   0.035 TIME LEFT:  2.00D  GRAD.:    14.565 HEAT: -110.6291
 CYCLE:    58 TIME:   0.035 TIME LEFT:  2.00D  GRAD.:    11.337 HEAT: -110.7298
 CYCLE:    59 TIME:   0.035 TIME LEFT:  2.00D  GRAD.:    10.809 HEAT: -110.8388
 CYCLE:    60 TIME:   0.035 TIME LEFT:  2.00D  GRAD.:    12.032 HEAT: -110.9916
 CYCLE:    61 TIME:   0.035 TIME LEFT:  2.00D  GRAD.:    30.669 HEAT: -111.0055
 CYCLE:    62 TIME:   0.035 TIME LEFT:  2.00D  GRAD.:    11.320 HEAT: -111.1999
 CYCLE:    63 TIME:   0.031 TIME LEFT:  2.00D  GRAD.:     8.025 HEAT: -111.2748
 CYCLE:    64 TIME:   0.035 TIME LEFT:  2.00D  GRAD.:    11.151 HEAT: -111.3688
 CYCLE:    65 TIME:   0.035 TIME LEFT:  2.00D  GRAD.:    17.432 HEAT: -111.5004
 CYCLE:    66 TIME:   0.035 TIME LEFT:  2.00D  GRAD.:    12.617 HEAT: -111.6155
 CYCLE:    67 TIME:   0.031 TIME LEFT:  2.00D  GRAD.:     8.104 HEAT: -111.6861
 CYCLE:    68 TIME:   0.031 TIME LEFT:  2.00D  GRAD.:     8.694 HEAT: -111.7447
 CYCLE:    69 TIME:   0.035 TIME LEFT:  2.00D  GRAD.:    11.908 HEAT: -111.8443
 CYCLE:    70 TIME:   0.031 TIME LEFT:  2.00D  GRAD.:    15.780 HEAT: -111.9388
 CYCLE:    71 TIME:   0.031 TIME LEFT:  2.00D  GRAD.:     7.576 HEAT: -112.0111
 CYCLE:    72 TIME:   0.035 TIME LEFT:  2.00D  GRAD.:     6.610 HEAT: -112.0416
 CYCLE:    73 TIME:   0.031 TIME LEFT:  2.00D  GRAD.:     5.392 HEAT: -112.0690
 CYCLE:    74 TIME:   0.031 TIME LEFT:  2.00D  GRAD.:     4.361 HEAT: -112.0971
 CYCLE:    75 TIME:   0.035 TIME LEFT:  2.00D  GRAD.:     5.279 HEAT: -112.1172
 CYCLE:    76 TIME:   0.031 TIME LEFT:  2.00D  GRAD.:     5.309 HEAT: -112.1313
 CYCLE:    77 TIME:   0.031 TIME LEFT:  2.00D  GRAD.:     3.434 HEAT: -112.1437
 CYCLE:    78 TIME:   0.031 TIME LEFT:  2.00D  GRAD.:     3.431 HEAT: -112.1593
 CYCLE:    79 TIME:   0.035 TIME LEFT:  2.00D  GRAD.:     5.085 HEAT: -112.1698
 CYCLE:    80 TIME:   0.031 TIME LEFT:  2.00D  GRAD.:     2.890 HEAT: -112.1813
 CYCLE:    81 TIME:   0.031 TIME LEFT:  2.00D  GRAD.:     2.742 HEAT: -112.1899
 CYCLE:    82 TIME:   0.031 TIME LEFT:  2.00D  GRAD.:     4.260 HEAT: -112.2011
 CYCLE:    83 TIME:   0.031 TIME LEFT:  2.00D  GRAD.:     4.930 HEAT: -112.2133
 CYCLE:    84 TIME:   0.031 TIME LEFT:  2.00D  GRAD.:     3.438 HEAT: -112.2254
 CYCLE:    85 TIME:   0.031 TIME LEFT:  2.00D  GRAD.:     2.748 HEAT: -112.2359
 CYCLE:    86 TIME:   0.031 TIME LEFT:  2.00D  GRAD.:     3.672 HEAT: -112.2414
 CYCLE:    87 TIME:   0.031 TIME LEFT:  2.00D  GRAD.:     2.420 HEAT: -112.2464
 CYCLE:    88 TIME:   0.031 TIME LEFT:  2.00D  GRAD.:     1.957 HEAT: -112.2518
 CYCLE:    89 TIME:   0.031 TIME LEFT:  2.00D  GRAD.:     2.410 HEAT: -112.2564
 CYCLE:    90 TIME:   0.031 TIME LEFT:  2.00D  GRAD.:     3.499 HEAT: -112.2610
 CYCLE:    91 TIME:   0.031 TIME LEFT:  2.00D  GRAD.:     2.241 HEAT: -112.2662
 CYCLE:    92 TIME:   0.035 TIME LEFT:  2.00D  GRAD.:     2.200 HEAT: -112.2711
 CYCLE:    93 TIME:   0.031 TIME LEFT:  2.00D  GRAD.:     2.727 HEAT: -112.2761
 CYCLE:    94 TIME:   0.031 TIME LEFT:  2.00D  GRAD.:     4.022 HEAT: -112.2812
 CYCLE:    95 TIME:   0.031 TIME LEFT:  2.00D  GRAD.:     2.500 HEAT: -112.2867
 CYCLE:    96 TIME:   0.031 TIME LEFT:  2.00D  GRAD.:     2.048 HEAT: -112.2908
 CYCLE:    97 TIME:   0.035 TIME LEFT:  2.00D  GRAD.:     2.349 HEAT: -112.2948
 CYCLE:    98 TIME:   0.031 TIME LEFT:  2.00D  GRAD.:     4.198 HEAT: -112.2998
 CYCLE:    99 TIME:   0.031 TIME LEFT:  2.00D  GRAD.:     2.326 HEAT: -112.3054
 CYCLE:   100 TIME:   0.031 TIME LEFT:  2.00D  GRAD.:     1.860 HEAT: -112.3094
 CYCLE:   101 TIME:   0.035 TIME LEFT:  2.00D  GRAD.:     2.431 HEAT: -112.3120
 CYCLE:   102 TIME:   0.031 TIME LEFT:  2.00D  GRAD.:     1.994 HEAT: -112.3157
 CYCLE:   103 TIME:   0.031 TIME LEFT:  2.00D  GRAD.:     2.701 HEAT: -112.3197
 CYCLE:   104 TIME:   0.031 TIME LEFT:  2.00D  GRAD.:     2.325 HEAT: -112.3224
 CYCLE:   105 TIME:   0.035 TIME LEFT:  2.00D  GRAD.:     1.454 HEAT: -112.3244
 CYCLE:   106 TIME:   0.031 TIME LEFT:  2.00D  GRAD.:     1.382 HEAT: -112.3268
 CYCLE:   107 TIME:   0.027 TIME LEFT:  2.00D  GRAD.:     1.717 HEAT: -112.3290
 CYCLE:   108 TIME:   0.035 TIME LEFT:  2.00D  GRAD.:     2.039 HEAT: -112.3323
 CYCLE:   109 TIME:   0.035 TIME LEFT:  2.00D  GRAD.:     2.213 HEAT: -112.3346
 CYCLE:   110 TIME:   0.031 TIME LEFT:  2.00D  GRAD.:     1.577 HEAT: -112.3373
 CYCLE:   111 TIME:   0.035 TIME LEFT:  2.00D  GRAD.:     1.518 HEAT: -112.3406
 CYCLE:   112 TIME:   0.031 TIME LEFT:  2.00D  GRAD.:     2.298 HEAT: -112.3426
 CYCLE:   113 TIME:   0.031 TIME LEFT:  2.00D  GRAD.:     1.631 HEAT: -112.3448
 CYCLE:   114 TIME:   0.035 TIME LEFT:  2.00D  GRAD.:     1.485 HEAT: -112.3465
 CYCLE:   115 TIME:   0.031 TIME LEFT:  2.00D  GRAD.:     1.942 HEAT: -112.3483
 CYCLE:   116 TIME:   0.035 TIME LEFT:  2.00D  GRAD.:     1.643 HEAT: -112.3505
 CYCLE:   117 TIME:   0.031 TIME LEFT:  2.00D  GRAD.:     4.220 HEAT: -112.3503
 CYCLE:   118 TIME:   0.031 TIME LEFT:  2.00D  GRAD.:     1.412 HEAT: -112.3533
 CYCLE:   119 TIME:   0.035 TIME LEFT:  2.00D  GRAD.:     1.045 HEAT: -112.3546
 CYCLE:   120 TIME:   0.035 TIME LEFT:  2.00D  GRAD.:     1.499 HEAT: -112.3565
 CYCLE:   121 TIME:   0.035 TIME LEFT:  2.00D  GRAD.:     3.392 HEAT: -112.3584
 CYCLE:   122 TIME:   0.031 TIME LEFT:  2.00D  GRAD.:     1.636 HEAT: -112.3611
 CYCLE:   123 TIME:   0.035 TIME LEFT:  2.00D  GRAD.:     1.208 HEAT: -112.3625
 CYCLE:   124 TIME:   0.031 TIME LEFT:  2.00D  GRAD.:     1.336 HEAT: -112.3641
 CYCLE:   125 TIME:   0.035 TIME LEFT:  2.00D  GRAD.:     2.421 HEAT: -112.3670
 CYCLE:   126 TIME:   0.031 TIME LEFT:  2.00D  GRAD.:     2.421 HEAT: -112.3693
 CYCLE:   127 TIME:   0.031 TIME LEFT:  2.00D  GRAD.:     1.885 HEAT: -112.3717
 CYCLE:   128 TIME:   0.035 TIME LEFT:  2.00D  GRAD.:     1.561 HEAT: -112.3753
 CYCLE:   129 TIME:   0.035 TIME LEFT:  2.00D  GRAD.:     2.230 HEAT: -112.3790
 CYCLE:   130 TIME:   0.035 TIME LEFT:  2.00D  GRAD.:     2.804 HEAT: -112.3818
 CYCLE:   131 TIME:   0.031 TIME LEFT:  2.00D  GRAD.:     5.676 HEAT: -112.3805
 CYCLE:   132 TIME:   0.031 TIME LEFT:  2.00D  GRAD.:     1.741 HEAT: -112.3871
 CYCLE:   133 TIME:   0.035 TIME LEFT:  2.00D  GRAD.:     1.887 HEAT: -112.3859
 CYCLE:   134 TIME:   0.035 TIME LEFT:  2.00D  GRAD.:     2.535 HEAT: -112.3879
 CYCLE:   135 TIME:   0.031 TIME LEFT:  2.00D  GRAD.:     2.766 HEAT: -112.3891
 CYCLE:   136 TIME:   0.031 TIME LEFT:  2.00D  GRAD.:     1.163 HEAT: -112.3908
 CYCLE:   137 TIME:   0.035 TIME LEFT:  2.00D  GRAD.:     0.887 HEAT: -112.3921

 -------------------------------------------------------------------------------
 PM7 CHARGE=0




     HERBERTS TEST WAS SATISFIED IN BFGS                      
     SCF FIELD WAS ACHIEVED                                   


                              PM7 CALCULATION
                                                       MOPAC v23.2.2 Linux
                                                       Wed Mar 18 11:58:42 2026




          FINAL HEAT OF FORMATION =       -112.39209 KCAL/MOL =    -470.24852 KJ/MOL


          COSMO AREA              =        412.79 SQUARE ANGSTROMS
          COSMO VOLUME            =        462.28 CUBIC ANGSTROMS

          GRADIENT NORM           =          0.88721          =       0.13375 PER ATOM
          IONIZATION POTENTIAL    =          8.893766 EV
          HOMO LUMO ENERGIES (EV) =         -8.894 -1.470
          NO. OF FILLED LEVELS    =         76
          MOLECULAR WEIGHT        =        453.5050         POINT GROUP:  C1  

          MOLECULAR DIMENSIONS (Angstroms)

            Atom       Atom       Distance
            H    34    O    26    16.97214
            H    32    H    35     7.63153
            H    43    O    23     4.75225


          SCF CALCULATIONS        =        138

          WALL-CLOCK TIME         =      4.430 SECONDS
          COMPUTATION TIME        =          1 MINUTE AND 46.164 SECONDS




   ATOM   CHEMICAL          X               Y               Z
  NUMBER   SYMBOL      (ANGSTROMS)     (ANGSTROMS)     (ANGSTROMS)

     1       N          1.08645748  *  -1.51204483  *   0.65741154  *
     2       N          1.82174014  *   0.19774434  *  -0.86760795  *
     3       N         -0.08720279  *  -3.03104409  *   2.03979518  *
     4       N          7.93947481  *   1.37722475  *   1.16603846  *
     5       N         -6.79663333  *   2.31267728  *  -2.09614857  *
     6       C         -1.29541231  *  -1.34434804  *   0.73403185  *
     7       C         -0.12889831  *  -1.99952591  *   1.17523226  *
     8       C          0.87472524  *  -0.51400822  *  -0.19311637  *
     9       C          3.22444777  *   0.12508753  *  -0.68829201  *
    10       C         -2.60736706  *  -1.67876366  *   1.18899845  *
    11       C         -3.75751513  *  -0.83857349  *   0.74931226  *
    12       C          3.98382710  *   1.08212512  *  -1.39261955  *
    13       C          5.36276384  *   1.11286113  *  -1.23721792  *
    14       C          5.99624667  *   0.20369243  *  -0.38866479  *
    15       C          5.24710209  *  -0.76572262  *   0.27482611  *
    16       C          3.86304723  *  -0.81314141  *   0.12853630  *
    17       C         -4.75599396  *  -1.41097759  *  -0.03581931  *
    18       C         -5.84479204  *  -0.63695812  *  -0.43529647  *
    19       C         -5.92474715  *   0.69840686  *  -0.04499702  *
    20       C         -4.93585351  *   1.26102186  *   0.76041347  *
    21       C         -3.84670267  *   0.48977553  *   1.16167250  *
    22       O         -2.80504034  *  -2.62741244  *   1.93167430  *
    23       O          8.30694530  *   0.96089037  *  -1.31168801  *
    24       O          8.20846500  *  -0.99481487  *   0.29459515  *
    25       O         -7.38178929  *   2.82917181  *   0.31912181  *
    26       O         -8.41298197  *   0.82026759  *  -0.82446055  *
    27       S         -0.88619754  *  -0.10630213  *  -0.41616274  *
    28       S          7.73227650  *   0.28597017  *  -0.17139941  *
    29       S         -7.28760983  *   1.68100198  *  -0.55126158  *
    30       H          1.49655407  *   0.89844760  *  -1.53862348  *
    31       H          0.77908956  *  -3.44505626  *   2.32151872  *
    32       H         -0.96355626  *  -3.38764941  *   2.41285212  *
    33       H          8.37203499  *   2.26308949  *   0.96246795  *
    34       H          8.31963316  *   0.98613434  *   2.01202411  *
    35       H         -6.65566429  *   3.30801767  *  -2.14871255  *
    36       H         -7.30978998  *   1.98845252  *  -2.89928638  *
    37       H          3.50167448  *   1.79810946  *  -2.05233801  *
    38       H          5.94474452  *   1.85726644  *  -1.79692047  *
    39       H          5.73345845  *  -1.51251538  *   0.91709844  *
    40       H          3.29543252  *  -1.58471129  *   0.65569807  *
    41       H         -4.69030444  *  -2.46059459  *  -0.32252639  *
    42       H         -6.63321931  *  -1.09787625  *  -1.04104211  *
    43       H         -5.00428989  *   2.30267759  *   1.09489688  *
    44       H         -3.07866677  *   0.92195592  *   1.80240084  *

                             CARTESIAN COORDINATES

   1    N        1.086457481    -1.512044829     0.657411545
   2    N        1.821740140     0.197744336    -0.867607950
   3    N       -0.087202789    -3.031044094     2.039795180
   4    N        7.939474812     1.377224747     1.166038462
   5    N       -6.796633328     2.312677284    -2.096148572
   6    C       -1.295412313    -1.344348044     0.734031852
   7    C       -0.128898305    -1.999525905     1.175232255
   8    C        0.874725241    -0.514008218    -0.193116368
   9    C        3.224447772     0.125087528    -0.688292008
  10    C       -2.607367059    -1.678763658     1.188998449
  11    C       -3.757515125    -0.838573488     0.749312258
  12    C        3.983827098     1.082125115    -1.392619548
  13    C        5.362763840     1.112861127    -1.237217918
  14    C        5.996246667     0.203692429    -0.388664789
  15    C        5.247102090    -0.765722619     0.274826111
  16    C        3.863047229    -0.813141405     0.128536302
  17    C       -4.755993961    -1.410977588    -0.035819313
  18    C       -5.844792035    -0.636958119    -0.435296470
  19    C       -5.924747145     0.698406855    -0.044997023
  20    C       -4.935853510     1.261021862     0.760413467
  21    C       -3.846702671     0.489775533     1.161672501
  22    O       -2.805040338    -2.627412443     1.931674296
  23    O        8.306945300     0.960890368    -1.311688006
  24    O        8.208464996    -0.994814872     0.294595153
  25    O       -7.381789293     2.829171814     0.319121814
  26    O       -8.412981970     0.820267593    -0.824460551
  27    S       -0.886197541    -0.106302128    -0.416162735
  28    S        7.732276500     0.285970171    -0.171399405
  29    S       -7.287609835     1.681001984    -0.551261582
  30    H        1.496554074     0.898447601    -1.538623476
  31    H        0.779089558    -3.445056259     2.321518724
  32    H       -0.963556260    -3.387649412     2.412852116
  33    H        8.372034986     2.263089491     0.962467946
  34    H        8.319633161     0.986134344     2.012024106
  35    H       -6.655664288     3.308017672    -2.148712555
  36    H       -7.309789984     1.988452523    -2.899286384
  37    H        3.501674477     1.798109457    -2.052338010
  38    H        5.944744523     1.857266437    -1.796920467
  39    H        5.733458447    -1.512515377     0.917098435
  40    H        3.295432521    -1.584711294     0.655698067
  41    H       -4.690304444    -2.460594595    -0.322526393
  42    H       -6.633219310    -1.097876247    -1.041042113
  43    H       -5.004289892     2.302677587     1.094896884
  44    H       -3.078666774     0.921955925     1.802400837


           Empirical Formula: C16 H15 N5 O5 S3  =    44 atoms



      MOLECULAR POINT GROUP   :   C1  


                  EIGENVALUES  
 -38.69475 -38.12405 -36.11391 -36.05408 -35.98375 -31.48412 -31.32757 -30.76714
 -29.44038 -29.37217 -28.54060 -27.99993 -27.91222 -26.86991 -26.77361 -26.46921
 -26.35283 -24.90918 -23.66295 -22.70837 -22.41762 -21.73469 -21.50740 -20.57771
 -19.91271 -19.73527 -19.70902 -18.82340 -18.08995 -17.68433 -17.17630 -17.09601
 -17.07279 -16.72865 -16.49185 -16.40561 -16.10961 -16.01819 -15.86689 -15.72535
 -15.65568 -15.49182 -15.21010 -15.11811 -14.92174 -14.80615 -14.53117 -14.14518
 -14.12661 -13.98318 -13.88720 -13.79350 -13.58982 -13.29343 -12.85288 -12.65601
 -12.53651 -12.46304 -12.38110 -11.84289 -11.75166 -11.72786 -11.64570 -11.63538
 -11.52924 -11.44586 -11.14782 -10.90519 -10.72408 -10.69110 -10.66489 -10.53498
 -10.44024 -10.35965  -9.85570  -8.89377  -1.47033  -1.14226  -0.83860  -0.61162
  -0.56884  -0.53182  -0.29191   0.04401   0.04720   0.23662   0.45847   0.64371
   0.69104   0.75435   1.01491   1.31028   1.54867   1.57629   1.79079   1.97163
   2.56839   2.58274   2.65264   2.73526   2.84224   2.91051   2.93423   3.13181
   3.21841   3.45192   3.54770   3.79462   3.88641   3.91272   4.05332   4.22142
   4.24157   4.28801   4.36499   4.44231   4.48089   4.54723   4.57562   4.64111
   4.66950   4.68230   4.71155   4.78097   4.93018   4.97124   5.03901   5.10930
   5.23232   5.29883   5.30316   5.33142   5.38974   5.42752   5.47245   5.58501
   5.70812   5.79537   5.87061   5.94944   6.01923   6.31020   6.33011   6.37519
   6.60904   6.68567


              NET ATOMIC CHARGES AND DIPOLE CONTRIBUTIONS

  ATOM NO.   TYPE          CHARGE      No. of ELECS.   s-Pop       p-Pop       d-Pop       
    1          N          -0.572499        5.5725     1.76799     3.80451
    2          N          -0.463125        5.4631     1.52024     3.94288
    3          N          -0.523284        5.5233     1.50960     4.01369
    4          N          -0.944449        5.9444     1.65665     4.28780
    5          N          -0.947476        5.9475     1.65811     4.28937
    6          C          -0.602834        4.6028     1.05732     3.54552
    7          C           0.508744        3.4913     1.05311     2.43814
    8          C           0.345991        3.6540     1.10892     2.54509
    9          C           0.248892        3.7511     1.06306     2.68804
   10          C           0.521675        3.4783     1.08424     2.39409
   11          C          -0.071895        4.0719     1.08466     2.98723
   12          C          -0.282504        4.2825     1.07595     3.20655
   13          C          -0.012738        4.0127     1.08955     2.92319
   14          C          -0.419689        4.4197     1.10700     3.31269
   15          C          -0.010188        4.0102     1.09208     2.91811
   16          C          -0.243322        4.2433     1.08424     3.15909
   17          C          -0.140110        4.1401     1.08378     3.05633
   18          C          -0.071670        4.0717     1.08909     2.98258
   19          C          -0.358132        4.3581     1.11178     3.24635
   20          C          -0.071055        4.0711     1.08915     2.98190
   21          C          -0.154902        4.1549     1.08277     3.07213
   22          O          -0.521847        6.5218     1.88189     4.63995
   23          O          -0.917802        6.9178     1.89276     5.02505
   24          O          -0.912603        6.9126     1.89277     5.01983
   25          O          -0.913702        6.9137     1.89268     5.02103
   26          O          -0.907868        6.9079     1.89259     5.01528
   27          S           0.161818        5.8382     1.89225     3.81528     0.13065
   28          S           2.358596        3.6414     1.16943     1.96857     0.50340
   29          S           2.343827        3.6562     1.17356     1.97585     0.50676
   30          H           0.330250        0.6698     0.66975
   31          H           0.321713        0.6783     0.67829
   32          H           0.353248        0.6468     0.64675
   33          H           0.293821        0.7062     0.70618
   34          H           0.294315        0.7057     0.70568
   35          H           0.293168        0.7068     0.70683
   36          H           0.293869        0.7061     0.70613
   37          H           0.159133        0.8409     0.84087
   38          H           0.175392        0.8246     0.82461
   39          H           0.176870        0.8231     0.82313
   40          H           0.205292        0.7947     0.79471
   41          H           0.165662        0.8343     0.83434
   42          H           0.174204        0.8258     0.82580
   43          H           0.174352        0.8256     0.82565
   44          H           0.162862        0.8371     0.83714
 DIPOLE           X         Y         Z       TOTAL
 POINT-CHG.     3.091     2.232    -1.479     4.089
 HYBRID        -0.335    -0.042     0.341     0.480
 SUM            2.756     2.190    -1.138     3.700


          ATOMIC ORBITAL ELECTRON POPULATIONS

     Atom    s        px        py        pz      x^2-y^2     xz        z^2       yz        xy
    1  N   1.76799   1.29934   1.23434   1.27083
    2  N   1.52024   1.11295   1.40798   1.42195
    3  N   1.50960   1.22966   1.34370   1.44034
    4  N   1.65665   1.73397   1.27396   1.27987
    5  N   1.65811   1.70798   1.32019   1.26120
    6  C   1.05732   1.04395   1.21801   1.28356
    7  C   1.05311   0.84276   0.80145   0.79393
    8  C   1.10892   0.87387   0.83741   0.83381
    9  C   1.06306   0.77549   0.96173   0.95082
   10  C   1.08424   0.88041   0.78017   0.73352
   11  C   1.08466   1.00392   0.99448   0.98883
   12  C   1.07595   1.02333   1.07747   1.10575
   13  C   1.08955   0.99152   0.98624   0.94543
   14  C   1.10700   1.11396   1.08404   1.11469
   15  C   1.09208   0.98493   0.98015   0.95304
   16  C   1.08424   1.02270   1.07260   1.06379
   17  C   1.08378   0.97622   1.07803   1.00208
   18  C   1.08909   1.02279   0.97674   0.98305
   19  C   1.11178   1.09686   1.05474   1.09475
   20  C   1.08915   0.95692   1.07297   0.95200
   21  C   1.08277   1.04689   0.98939   1.03585
   22  O   1.88189   1.88039   1.36008   1.39949
   23  O   1.89276   1.77272   1.70941   1.54291
   24  O   1.89277   1.79261   1.46278   1.76443
   25  O   1.89268   1.82533   1.53289   1.66281
   26  O   1.89259   1.56007   1.65528   1.79993
   27  S   1.89225   0.90123   1.42184   1.49221   0.03928   0.01338   0.03564   0.02549   0.01687
   28  S   1.16943   0.70722   0.62973   0.63162   0.12877   0.05927   0.09750   0.14768   0.07018
   29  S   1.17356   0.67284   0.66097   0.64204   0.09234   0.06632   0.08999   0.11679   0.14134
   30  H   0.66975
   31  H   0.67829
   32  H   0.64675
   33  H   0.70618
   34  H   0.70568
   35  H   0.70683
   36  H   0.70613
   37  H   0.84087
   38  H   0.82461
   39  H   0.82313
   40  H   0.79471
   41  H   0.83434
   42  H   0.82580
   43  H   0.82565
   44  H   0.83714

 **********************
 *                    *
 * JOB ENDED NORMALLY *
 *                    *
 **********************



 TOTAL JOB TIME:             4.43 SECONDS

 == MOPAC DONE ==
