 *******************************************************************************
 **                                                                           **
 **                              MOPAC v23.2.2                                **
 **                                                                           **
 *******************************************************************************
 **          Digital Object Identifier (DOI): 10.5281/zenodo.6511958          **
 **    Visit the DOI location for information on how to cite this program.    **
 *******************************************************************************

                              PM7 CALCULATION RESULTS

 *******************************************************************************
 *  CALCULATION DONE: (MAX THREADS = 24)             Wed Mar 18 11:58:42 2026  *
 *  PM7        - The PM7 Hamiltonian to be used
 *
 *
 *
 *                 CHARGE ON SYSTEM = 0
 *
 *
 *
 *  T=         - A TIME OF 172800.0 SECONDS REQUESTED
 *  DUMP=N     - RESTART FILE WRITTEN EVERY 7200.0 SECONDS REQUESTED
 *******************************************************************************
PM7 CHARGE=0


   ATOM   CHEMICAL          X               Y               Z
  NUMBER   SYMBOL      (ANGSTROMS)     (ANGSTROMS)     (ANGSTROMS)

     1       N         -0.79540000  *  -3.73560000  *  -0.72530000  *
     2       N         -2.49160000  *  -2.16260000  *  -0.90210000  *
     3       N          1.11460000  *  -5.03600000  *  -0.58510000  *
     4       N         -5.30600000  *   3.73250000  *  -0.87650000  *
     5       N          4.45430000  *   3.80050000  *   0.69560000  *
     6       C          1.25710000  *  -2.62550000  *  -0.70260000  *
     7       C          0.56650000  *  -3.81510000  *  -0.66910000  *
     8       C         -1.17980000  *  -2.47930000  *  -0.79090000  *
     9       C         -3.19890000  *  -1.00800000  *  -0.52070000  *
    10       C          2.68940000  *  -2.42170000  *  -0.70690000  *
    11       C          3.28080000  *  -1.17560000  *  -0.14710000  *
    12       C         -2.72030000  *  -0.05440000  *   0.38720000  *
    13       C         -3.46120000  *   1.09420000  *   0.69020000  *
    14       C         -4.69210000  *   1.30300000  *   0.06960000  *
    15       C         -5.19780000  *   0.36670000  *  -0.83120000  *
    16       C         -4.44780000  *  -0.77540000  *  -1.12480000  *
    17       C          4.34030000  *  -0.56750000  *  -0.83600000  *
    18       C          4.93720000  *   0.58710000  *  -0.32570000  *
    19       C          4.47380000  *   1.12670000  *   0.87840000  *
    20       C          3.43930000  *   0.51010000  *   1.58920000  *
    21       C          2.84440000  *  -0.64590000  *   1.07640000  *
    22       O          3.48110000  *  -3.25170000  *  -1.15610000  *
    23       O         -5.04990000  *   3.40980000  *   1.58320000  *
    24       O         -7.04500000  *   2.39430000  *   0.39420000  *
    25       O          4.85520000  *   2.73030000  *   2.91330000  *
    26       O          6.63590000  *   2.58100000  *   1.11540000  *
    27       S          0.12660000  *  -1.34920000  *  -0.86480000  *
    28       S         -5.64730000  *   2.74780000  *   0.44630000  *
    29       S          5.25540000  *   2.58040000  *   1.53350000  *
    30       H         -3.09460000  *  -2.97220000  *  -1.01370000  *
    31       H          2.08670000  *  -5.16100000  *  -0.86730000  *
    32       H          0.52610000  *  -5.82600000  *  -0.82880000  *
    33       H         -4.79400000  *   3.25530000  *  -1.61690000  *
    34       H         -4.81740000  *   4.56740000  *  -0.54860000  *
    35       H          3.93670000  *   4.37620000  *   1.36220000  *
    36       H          3.86360000  *   3.46040000  *  -0.06100000  *
    37       H         -1.78350000  *  -0.20610000  *   0.91510000  *
    38       H         -3.07390000  *   1.80520000  *   1.41710000  *
    39       H         -6.16780000  *   0.51390000  *  -1.30260000  *
    40       H         -4.84680000  *  -1.49120000  *  -1.84160000  *
    41       H          4.71000000  *  -1.00020000  *  -1.76470000  *
    42       H          5.76810000  *   1.04720000  *  -0.85860000  *
    43       H          3.10510000  *   0.90840000  *   2.54570000  *
    44       H          2.06290000  *  -1.13800000  *   1.65200000  *



          CARTESIAN COORDINATES 

    NO.       ATOM           X           Y           Z

     1         N         -0.7954     -3.7356     -0.7253
     2         N         -2.4916     -2.1626     -0.9021
     3         N          1.1146     -5.0360     -0.5851
     4         N         -5.3060      3.7325     -0.8765
     5         N          4.4543      3.8005      0.6956
     6         C          1.2571     -2.6255     -0.7026
     7         C          0.5665     -3.8151     -0.6691
     8         C         -1.1798     -2.4793     -0.7909
     9         C         -3.1989     -1.0080     -0.5207
    10         C          2.6894     -2.4217     -0.7069
    11         C          3.2808     -1.1756     -0.1471
    12         C         -2.7203     -0.0544      0.3872
    13         C         -3.4612      1.0942      0.6902
    14         C         -4.6921      1.3030      0.0696
    15         C         -5.1978      0.3667     -0.8312
    16         C         -4.4478     -0.7754     -1.1248
    17         C          4.3403     -0.5675     -0.8360
    18         C          4.9372      0.5871     -0.3257
    19         C          4.4738      1.1267      0.8784
    20         C          3.4393      0.5101      1.5892
    21         C          2.8444     -0.6459      1.0764
    22         O          3.4811     -3.2517     -1.1561
    23         O         -5.0499      3.4098      1.5832
    24         O         -7.0450      2.3943      0.3942
    25         O          4.8552      2.7303      2.9133
    26         O          6.6359      2.5810      1.1154
    27         S          0.1266     -1.3492     -0.8648
    28         S         -5.6473      2.7478      0.4463
    29         S          5.2554      2.5804      1.5335
    30         H         -3.0946     -2.9722     -1.0137
    31         H          2.0867     -5.1610     -0.8673
    32         H          0.5261     -5.8260     -0.8288
    33         H         -4.7940      3.2553     -1.6169
    34         H         -4.8174      4.5674     -0.5486
    35         H          3.9367      4.3762      1.3622
    36         H          3.8636      3.4604     -0.0610
    37         H         -1.7835     -0.2061      0.9151
    38         H         -3.0739      1.8052      1.4171
    39         H         -6.1678      0.5139     -1.3026
    40         H         -4.8468     -1.4912     -1.8416
    41         H          4.7100     -1.0002     -1.7647
    42         H          5.7681      1.0472     -0.8586
    43         H          3.1051      0.9084      2.5457
    44         H          2.0629     -1.1380      1.6520

 General Reference for PM7:
 "Optimization of Parameters for Semiempirical Methods VI: More Modifications to the 
 NDDO Approximations and Re-optimization of Parameters", J. J. P. Stewart, J. Mol. Mod., 1:32, 19 (2013)
 https://link.springer.com/article/10.1007/s00894-012-1667-x

           Empirical Formula: C16 H15 N5 O5 S3  =    44 atoms



      MOLECULAR POINT GROUP   :   C1  


      RHF CALCULATION, NO. OF DOUBLY OCCUPIED LEVELS = 76


          Geometry optimization using L-BFGS
 CYCLE:     1 TIME:   0.102 TIME LEFT:  2.00D  GRAD.:   168.837 HEAT: -83.09636
 CYCLE:     2 TIME:   0.043 TIME LEFT:  2.00D  GRAD.:   165.776 HEAT: -83.37885
 CYCLE:     3 TIME:   0.047 TIME LEFT:  2.00D  GRAD.:    51.002 HEAT: -93.26141
 CYCLE:     4 TIME:   0.051 TIME LEFT:  2.00D  GRAD.:   165.983 HEAT: -83.38175
 CYCLE:     5 TIME:   0.047 TIME LEFT:  2.00D  GRAD.:    51.046 HEAT: -93.26276
 CYCLE:     6 TIME:   0.043 TIME LEFT:  2.00D  GRAD.:    47.287 HEAT: -94.81182
 CYCLE:     7 TIME:   0.047 TIME LEFT:  2.00D  GRAD.:    48.291 HEAT: -97.04648
 CYCLE:     8 TIME:   0.051 TIME LEFT:  2.00D  GRAD.:    78.366 HEAT: -97.75345
 CYCLE:     9 TIME:   0.039 TIME LEFT:  2.00D  GRAD.:    28.105 HEAT: -98.63916
 CYCLE:    10 TIME:   0.039 TIME LEFT:  2.00D  GRAD.:    19.573 HEAT: -99.00436
 CYCLE:    11 TIME:   0.047 TIME LEFT:  2.00D  GRAD.:    22.978 HEAT: -99.35783
 CYCLE:    12 TIME:   0.043 TIME LEFT:  2.00D  GRAD.:    22.759 HEAT: -99.87976
 CYCLE:    13 TIME:   0.047 TIME LEFT:  2.00D  GRAD.:    60.578 HEAT: -100.0188
 CYCLE:    14 TIME:   0.047 TIME LEFT:  2.00D  GRAD.:    14.840 HEAT: -100.6593
 CYCLE:    15 TIME:   0.039 TIME LEFT:  2.00D  GRAD.:    10.687 HEAT: -100.7720
 CYCLE:    16 TIME:   0.047 TIME LEFT:  2.00D  GRAD.:    14.022 HEAT: -100.9476
 CYCLE:    17 TIME:   0.047 TIME LEFT:  2.00D  GRAD.:    14.901 HEAT: -101.1321
 CYCLE:    18 TIME:   0.047 TIME LEFT:  2.00D  GRAD.:    38.103 HEAT: -101.1479
 CYCLE:    19 TIME:   0.043 TIME LEFT:  2.00D  GRAD.:     8.270 HEAT: -101.4284
 CYCLE:    20 TIME:   0.043 TIME LEFT:  2.00D  GRAD.:     7.950 HEAT: -101.4762
 CYCLE:    21 TIME:   0.043 TIME LEFT:  2.00D  GRAD.:    11.091 HEAT: -101.5910
 CYCLE:    22 TIME:   0.047 TIME LEFT:  2.00D  GRAD.:    20.297 HEAT: -101.6770
 CYCLE:    23 TIME:   0.043 TIME LEFT:  2.00D  GRAD.:     9.671 HEAT: -101.7985
 CYCLE:    24 TIME:   0.043 TIME LEFT:  2.00D  GRAD.:    11.469 HEAT: -101.9191
 CYCLE:    25 TIME:   0.043 TIME LEFT:  2.00D  GRAD.:    15.159 HEAT: -102.0853
 CYCLE:    26 TIME:   0.051 TIME LEFT:  2.00D  GRAD.:    19.262 HEAT: -102.3305
 CYCLE:    27 TIME:   0.047 TIME LEFT:  2.00D  GRAD.:    28.285 HEAT: -102.4833
 CYCLE:    28 TIME:   0.047 TIME LEFT:  2.00D  GRAD.:    50.995 HEAT: -102.4978
 CYCLE:    29 TIME:   0.047 TIME LEFT:  2.00D  GRAD.:    29.798 HEAT: -102.7327
 CYCLE:    30 TIME:   0.047 TIME LEFT:  2.00D  GRAD.:    53.067 HEAT: -102.5734
 CYCLE:    31 TIME:   0.047 TIME LEFT:  2.00D  GRAD.:   115.689 HEAT: -100.2310
 CYCLE:    32 TIME:   0.051 TIME LEFT:  2.00D  GRAD.:    51.226 HEAT: -103.1946
 CYCLE:    33 TIME:   0.047 TIME LEFT:  2.00D  GRAD.:    26.153 HEAT: -103.7309
 CYCLE:    34 TIME:   0.051 TIME LEFT:  2.00D  GRAD.:    78.001 HEAT: -102.2396
 CYCLE:    35 TIME:   0.047 TIME LEFT:  2.00D  GRAD.:    36.760 HEAT: -103.8241
 CYCLE:    36 TIME:   0.047 TIME LEFT:  2.00D  GRAD.:    15.781 HEAT: -104.3731
 CYCLE:    37 TIME:   0.062 TIME LEFT:  2.00D  GRAD.:    19.829 HEAT: -104.8279
 CYCLE:    38 TIME:   0.051 TIME LEFT:  2.00D  GRAD.:    44.852 HEAT: -104.2471
 CYCLE:    39 TIME:   0.047 TIME LEFT:  2.00D  GRAD.:    40.802 HEAT: -105.4041
 CYCLE:    40 TIME:   0.043 TIME LEFT:  2.00D  GRAD.:    55.476 HEAT: -105.3285
 CYCLE:    41 TIME:   0.043 TIME LEFT:  2.00D  GRAD.:     9.362 HEAT: -105.8506
 CYCLE:    42 TIME:   0.047 TIME LEFT:  2.00D  GRAD.:     9.778 HEAT: -105.9492
 CYCLE:    43 TIME:   0.043 TIME LEFT:  2.00D  GRAD.:    14.115 HEAT: -106.1964
 CYCLE:    44 TIME:   0.047 TIME LEFT:  2.00D  GRAD.:    66.836 HEAT: -105.7174
 CYCLE:    45 TIME:   0.047 TIME LEFT:  2.00D  GRAD.:    13.541 HEAT: -106.4838
 CYCLE:    46 TIME:   0.039 TIME LEFT:  2.00D  GRAD.:     9.314 HEAT: -106.6004
 CYCLE:    47 TIME:   0.043 TIME LEFT:  2.00D  GRAD.:    13.592 HEAT: -106.8680
 CYCLE:    48 TIME:   0.047 TIME LEFT:  2.00D  GRAD.:    17.107 HEAT: -107.0212
 CYCLE:    49 TIME:   0.043 TIME LEFT:  2.00D  GRAD.:    10.764 HEAT: -107.2057
 CYCLE:    50 TIME:   0.051 TIME LEFT:  2.00D  GRAD.:    13.378 HEAT: -107.3341
 CYCLE:    51 TIME:   0.039 TIME LEFT:  2.00D  GRAD.:    12.485 HEAT: -107.4575
 CYCLE:    52 TIME:   0.043 TIME LEFT:  2.00D  GRAD.:    13.957 HEAT: -107.6563
 CYCLE:    53 TIME:   0.047 TIME LEFT:  2.00D  GRAD.:    29.013 HEAT: -107.8784
 CYCLE:    54 TIME:   0.047 TIME LEFT:  2.00D  GRAD.:    15.791 HEAT: -108.1767
 CYCLE:    55 TIME:   0.043 TIME LEFT:  2.00D  GRAD.:    14.124 HEAT: -108.4031
 CYCLE:    56 TIME:   0.043 TIME LEFT:  2.00D  GRAD.:    16.991 HEAT: -108.5914
 CYCLE:    57 TIME:   0.047 TIME LEFT:  2.00D  GRAD.:    18.699 HEAT: -108.7357
 CYCLE:    58 TIME:   0.039 TIME LEFT:  2.00D  GRAD.:    11.521 HEAT: -108.8567
 CYCLE:    59 TIME:   0.055 TIME LEFT:  2.00D  GRAD.:    12.976 HEAT: -108.9759
 CYCLE:    60 TIME:   0.039 TIME LEFT:  2.00D  GRAD.:    17.735 HEAT: -109.0280
 CYCLE:    61 TIME:   0.047 TIME LEFT:  2.00D  GRAD.:    13.370 HEAT: -109.2018
 CYCLE:    62 TIME:   0.043 TIME LEFT:  2.00D  GRAD.:    11.210 HEAT: -109.3367
 CYCLE:    63 TIME:   0.043 TIME LEFT:  2.00D  GRAD.:    13.617 HEAT: -109.4616
 CYCLE:    64 TIME:   0.047 TIME LEFT:  2.00D  GRAD.:    13.462 HEAT: -109.6464
 CYCLE:    65 TIME:   0.047 TIME LEFT:  2.00D  GRAD.:    15.705 HEAT: -109.8651
 CYCLE:    66 TIME:   0.043 TIME LEFT:  2.00D  GRAD.:    17.520 HEAT: -110.0689
 CYCLE:    67 TIME:   0.043 TIME LEFT:  2.00D  GRAD.:    15.574 HEAT: -110.1325
 CYCLE:    68 TIME:   0.047 TIME LEFT:  2.00D  GRAD.:    14.558 HEAT: -110.2345
 CYCLE:    69 TIME:   0.039 TIME LEFT:  2.00D  GRAD.:    10.101 HEAT: -110.3138
 CYCLE:    70 TIME:   0.039 TIME LEFT:  2.00D  GRAD.:     6.349 HEAT: -110.3635
 CYCLE:    71 TIME:   0.047 TIME LEFT:  2.00D  GRAD.:     6.375 HEAT: -110.4360
 CYCLE:    72 TIME:   0.043 TIME LEFT:  2.00D  GRAD.:    16.360 HEAT: -110.4654
 CYCLE:    73 TIME:   0.039 TIME LEFT:  2.00D  GRAD.:     6.694 HEAT: -110.5198
 CYCLE:    74 TIME:   0.043 TIME LEFT:  2.00D  GRAD.:     4.812 HEAT: -110.5482
 CYCLE:    75 TIME:   0.039 TIME LEFT:  2.00D  GRAD.:     5.003 HEAT: -110.5682
 CYCLE:    76 TIME:   0.043 TIME LEFT:  2.00D  GRAD.:     9.888 HEAT: -110.6010
 CYCLE:    77 TIME:   0.043 TIME LEFT:  2.00D  GRAD.:     4.987 HEAT: -110.6407
 CYCLE:    78 TIME:   0.039 TIME LEFT:  2.00D  GRAD.:     3.903 HEAT: -110.6630
 CYCLE:    79 TIME:   0.039 TIME LEFT:  2.00D  GRAD.:     5.127 HEAT: -110.6816
 CYCLE:    80 TIME:   0.043 TIME LEFT:  2.00D  GRAD.:     7.097 HEAT: -110.6929
 CYCLE:    81 TIME:   0.039 TIME LEFT:  2.00D  GRAD.:     3.612 HEAT: -110.7049
 CYCLE:    82 TIME:   0.043 TIME LEFT:  2.00D  GRAD.:     2.654 HEAT: -110.7158
 CYCLE:    83 TIME:   0.039 TIME LEFT:  2.00D  GRAD.:     2.741 HEAT: -110.7223
 CYCLE:    84 TIME:   0.043 TIME LEFT:  2.00D  GRAD.:     8.621 HEAT: -110.7236
 CYCLE:    85 TIME:   0.039 TIME LEFT:  2.00D  GRAD.:     2.141 HEAT: -110.7378
 CYCLE:    86 TIME:   0.043 TIME LEFT:  2.00D  GRAD.:     1.665 HEAT: -110.7403
 CYCLE:    87 TIME:   0.039 TIME LEFT:  2.00D  GRAD.:     2.002 HEAT: -110.7457
 CYCLE:    88 TIME:   0.043 TIME LEFT:  2.00D  GRAD.:     5.891 HEAT: -110.7468
 CYCLE:    89 TIME:   0.043 TIME LEFT:  2.00D  GRAD.:     1.901 HEAT: -110.7527
 CYCLE:    90 TIME:   0.039 TIME LEFT:  2.00D  GRAD.:     1.307 HEAT: -110.7547
 CYCLE:    91 TIME:   0.043 TIME LEFT:  2.00D  GRAD.:     1.582 HEAT: -110.7570
 CYCLE:    92 TIME:   0.039 TIME LEFT:  2.00D  GRAD.:     1.805 HEAT: -110.7602
 CYCLE:    93 TIME:   0.043 TIME LEFT:  2.00D  GRAD.:     5.699 HEAT: -110.7600
 CYCLE:    94 TIME:   0.039 TIME LEFT:  2.00D  GRAD.:     1.484 HEAT: -110.7659
 CYCLE:    95 TIME:   0.043 TIME LEFT:  2.00D  GRAD.:     1.323 HEAT: -110.7673
 CYCLE:    96 TIME:   0.043 TIME LEFT:  2.00D  GRAD.:     1.914 HEAT: -110.7706
 CYCLE:    97 TIME:   0.043 TIME LEFT:  2.00D  GRAD.:     3.657 HEAT: -110.7730
 CYCLE:    98 TIME:   0.043 TIME LEFT:  2.00D  GRAD.:     1.870 HEAT: -110.7765
 CYCLE:    99 TIME:   0.039 TIME LEFT:  2.00D  GRAD.:     1.548 HEAT: -110.7794
 CYCLE:   100 TIME:   0.043 TIME LEFT:  2.00D  GRAD.:     2.009 HEAT: -110.7828
 CYCLE:   101 TIME:   0.043 TIME LEFT:  2.00D  GRAD.:     2.869 HEAT: -110.7886
 CYCLE:   102 TIME:   0.047 TIME LEFT:  2.00D  GRAD.:     2.758 HEAT: -110.7943
 CYCLE:   103 TIME:   0.043 TIME LEFT:  2.00D  GRAD.:     2.304 HEAT: -110.8003
 CYCLE:   104 TIME:   0.043 TIME LEFT:  2.00D  GRAD.:     3.712 HEAT: -110.8058
 CYCLE:   105 TIME:   0.043 TIME LEFT:  2.00D  GRAD.:     3.267 HEAT: -110.8127
 CYCLE:   106 TIME:   0.039 TIME LEFT:  2.00D  GRAD.:     2.691 HEAT: -110.8192
 CYCLE:   107 TIME:   0.043 TIME LEFT:  2.00D  GRAD.:     2.972 HEAT: -110.8290
 CYCLE:   108 TIME:   0.043 TIME LEFT:  2.00D  GRAD.:     3.975 HEAT: -110.8381
 CYCLE:   109 TIME:   0.047 TIME LEFT:  2.00D  GRAD.:     3.787 HEAT: -110.8485
 CYCLE:   110 TIME:   0.043 TIME LEFT:  2.00D  GRAD.:     5.005 HEAT: -110.8575
 CYCLE:   111 TIME:   0.043 TIME LEFT:  2.00D  GRAD.:     3.953 HEAT: -110.8680
 CYCLE:   112 TIME:   0.043 TIME LEFT:  2.00D  GRAD.:     5.690 HEAT: -110.8758
 CYCLE:   113 TIME:   0.363 TIME LEFT:  2.00D  GRAD.:     7.389 HEAT: -110.8903
 CYCLE:   114 TIME:   0.172 TIME LEFT:  2.00D  GRAD.:     9.330 HEAT: -110.8845
 CYCLE:   115 TIME:   0.043 TIME LEFT:  2.00D  GRAD.:     3.458 HEAT: -110.9007
 CYCLE:   116 TIME:   0.043 TIME LEFT:  2.00D  GRAD.:     3.431 HEAT: -110.9024
 CYCLE:   117 TIME:   0.047 TIME LEFT:  2.00D  GRAD.:     2.596 HEAT: -110.9087
 CYCLE:   118 TIME:   0.051 TIME LEFT:  2.00D  GRAD.:     5.011 HEAT: -110.9153
 CYCLE:   119 TIME:   0.031 TIME LEFT:  2.00D  GRAD.:     4.324 HEAT: -110.9244
 CYCLE:   120 TIME:   0.031 TIME LEFT:  2.00D  GRAD.:     2.859 HEAT: -110.9333
 CYCLE:   121 TIME:   0.035 TIME LEFT:  2.00D  GRAD.:     3.024 HEAT: -110.9411
 CYCLE:   122 TIME:   0.035 TIME LEFT:  2.00D  GRAD.:     3.702 HEAT: -110.9510
 CYCLE:   123 TIME:   0.031 TIME LEFT:  2.00D  GRAD.:     5.274 HEAT: -110.9615
 CYCLE:   124 TIME:   0.031 TIME LEFT:  2.00D  GRAD.:     2.862 HEAT: -110.9729
 CYCLE:   125 TIME:   0.035 TIME LEFT:  2.00D  GRAD.:     2.320 HEAT: -110.9807
 CYCLE:   126 TIME:   0.035 TIME LEFT:  2.00D  GRAD.:     3.444 HEAT: -110.9856
 CYCLE:   127 TIME:   0.035 TIME LEFT:  2.00D  GRAD.:    10.300 HEAT: -110.9801
 CYCLE:   128 TIME:   0.031 TIME LEFT:  2.00D  GRAD.:     2.180 HEAT: -110.9997
 CYCLE:   129 TIME:   0.031 TIME LEFT:  2.00D  GRAD.:     1.757 HEAT: -111.0037
 CYCLE:   130 TIME:   0.039 TIME LEFT:  2.00D  GRAD.:     2.961 HEAT: -111.0070
 CYCLE:   131 TIME:   0.035 TIME LEFT:  2.00D  GRAD.:    10.810 HEAT: -110.9902
 CYCLE:   132 TIME:   0.031 TIME LEFT:  2.00D  GRAD.:     3.584 HEAT: -111.0195
 CYCLE:   133 TIME:   0.031 TIME LEFT:  2.00D  GRAD.:     2.151 HEAT: -111.0251
 CYCLE:   134 TIME:   0.035 TIME LEFT:  2.00D  GRAD.:     4.237 HEAT: -111.0183
 CYCLE:   135 TIME:   0.035 TIME LEFT:  2.00D  GRAD.:     4.234 HEAT: -111.0355
 CYCLE:   136 TIME:   0.035 TIME LEFT:  2.00D  GRAD.:     6.824 HEAT: -111.0308
 CYCLE:   137 TIME:   0.031 TIME LEFT:  2.00D  GRAD.:     1.593 HEAT: -111.0431
 CYCLE:   138 TIME:   0.035 TIME LEFT:  2.00D  GRAD.:     2.000 HEAT: -111.0470
 CYCLE:   139 TIME:   0.031 TIME LEFT:  2.00D  GRAD.:     2.076 HEAT: -111.0536
 CYCLE:   140 TIME:   0.035 TIME LEFT:  2.00D  GRAD.:     4.891 HEAT: -111.0706
 CYCLE:   141 TIME:   0.031 TIME LEFT:  2.00D  GRAD.:    11.242 HEAT: -111.0620
 CYCLE:   142 TIME:   0.031 TIME LEFT:  2.00D  GRAD.:     2.253 HEAT: -111.0814
 CYCLE:   143 TIME:   0.035 TIME LEFT:  2.00D  GRAD.:     1.582 HEAT: -111.0832
 CYCLE:   144 TIME:   0.035 TIME LEFT:  2.00D  GRAD.:     2.525 HEAT: -111.0899
 CYCLE:   145 TIME:   0.031 TIME LEFT:  2.00D  GRAD.:     2.671 HEAT: -111.0951
 CYCLE:   146 TIME:   0.035 TIME LEFT:  2.00D  GRAD.:     3.448 HEAT: -111.0979
 CYCLE:   147 TIME:   0.035 TIME LEFT:  2.00D  GRAD.:     3.613 HEAT: -111.1037
 CYCLE:   148 TIME:   0.031 TIME LEFT:  2.00D  GRAD.:     1.285 HEAT: -111.1066
 CYCLE:   149 TIME:   0.031 TIME LEFT:  2.00D  GRAD.:     0.941 HEAT: -111.1074

 -------------------------------------------------------------------------------
 PM7 CHARGE=0




     HERBERTS TEST WAS SATISFIED IN BFGS                      
     SCF FIELD WAS ACHIEVED                                   


                              PM7 CALCULATION
                                                       MOPAC v23.2.2 Linux
                                                       Wed Mar 18 11:58:49 2026




          FINAL HEAT OF FORMATION =       -111.10736 KCAL/MOL =    -464.87321 KJ/MOL


          COSMO AREA              =        411.39 SQUARE ANGSTROMS
          COSMO VOLUME            =        462.30 CUBIC ANGSTROMS

          GRADIENT NORM           =          0.94146          =       0.14193 PER ATOM
          IONIZATION POTENTIAL    =          8.865440 EV
          HOMO LUMO ENERGIES (EV) =         -8.865 -1.510
          NO. OF FILLED LEVELS    =         76
          MOLECULAR WEIGHT        =        453.5050         POINT GROUP:  C1  

          MOLECULAR DIMENSIONS (Angstroms)

            Atom       Atom       Distance
            O    26    O    24    13.32544
            H    32    H    34    10.63353
            H    43    H    41     4.38542


          SCF CALCULATIONS        =        150

          WALL-CLOCK TIME         =      6.789 SECONDS
          COMPUTATION TIME        =          2 MINUTES AND 42.030 SECONDS




   ATOM   CHEMICAL          X               Y               Z
  NUMBER   SYMBOL      (ANGSTROMS)     (ANGSTROMS)     (ANGSTROMS)

     1       N         -0.80623151  *  -3.81884786  *  -0.91350659  *
     2       N         -2.57548724  *  -2.31761414  *  -0.79485929  *
     3       N          1.19380889  *  -5.07389236  *  -1.02400966  *
     4       N         -4.91178920  *   3.84633660  *  -0.85932155  *
     5       N          4.11492666  *   3.85214310  *   0.62131154  *
     6       C          1.24624089  *  -2.67899708  *  -0.49534756  *
     7       C          0.59242985  *  -3.88689304  *  -0.81500860  *
     8       C         -1.24126810  *  -2.57563870  *  -0.68775316  *
     9       C         -3.22129138  *  -1.09701972  *  -0.49172617  *
    10       C          2.65814848  *  -2.57669437  *  -0.31621502  *
    11       C          3.25206134  *  -1.27080260  *   0.08943926  *
    12       C         -2.82011685  *  -0.26962059  *   0.56294898  *
    13       C         -3.51923555  *   0.91055802  *   0.80537741  *
    14       C         -4.62033624  *   1.25456442  *   0.02388351  *
    15       C         -5.04296097  *   0.40640070  *  -0.99996798  *
    16       C         -4.34943850  *  -0.76787601  *  -1.26527269  *
    17       C          4.08821104  *  -0.60582970  *  -0.80562268  *
    18       C          4.67812728  *   0.59947815  *  -0.42916051  *
    19       C          4.42769563  *   1.12732383  *   0.83621763  *
    20       C          3.60697543  *   0.44920894  *   1.73572015  *
    21       C          3.01494874  *  -0.75623779  *   1.36230477  *
    22       O          3.39578420  *  -3.53487484  *  -0.49109310  *
    23       O         -5.03413818  *   3.26181632  *   1.61703877  *
    24       O         -6.88821138  *   2.54022843  *   0.04877139  *
    25       O          5.04563842  *   2.79763559  *   2.73886074  *
    26       O          6.42268554  *   2.79784070  *   0.61523380  *
    27       S          0.08170839  *  -1.38854405  *  -0.36505775  *
    28       S         -5.49172961  *   2.74210219  *   0.35015703  *
    29       S          5.16581344  *   2.64752122  *   1.30779300  *
    30       H         -3.16329370  *  -3.07907922  *  -1.15496457  *
    31       H          2.20606777  *  -5.12654798  *  -0.94621567  *
    32       H          0.66624602  *  -5.89858055  *  -1.23059011  *
    33       H         -5.59021503  *   4.18281707  *  -1.52349806  *
    34       H         -4.32944123  *   4.60258531  *  -0.53939663  *
    35       H          3.59375804  *   4.41744902  *   1.27031585  *
    36       H          4.50432023  *   4.42491898  *  -0.10948221  *
    37       H         -1.99593494  *  -0.54380180  *   1.21928267  *
    38       H         -3.19528305  *   1.55565334  *   1.63436805  *
    39       H         -5.92699615  *   0.64921007  *  -1.60280183  *
    40       H         -4.67609050  *  -1.42044701  *  -2.07175308  *
    41       H          4.28881676  *  -1.03445892  *  -1.78732864  *
    42       H          5.34616706  *   1.10846972  *  -1.13240778  *
    43       H          3.42650569  *   0.84361325  *   2.74255442  *
    44       H          2.38237613  *  -1.29526613  *   2.06653485  *

                             CARTESIAN COORDINATES

   1    N       -0.806231509    -3.818847861    -0.913506594
   2    N       -2.575487237    -2.317614135    -0.794859294
   3    N        1.193808892    -5.073892362    -1.024009658
   4    N       -4.911789196     3.846336603    -0.859321551
   5    N        4.114926660     3.852143105     0.621311542
   6    C        1.246240889    -2.678997079    -0.495347555
   7    C        0.592429852    -3.886893043    -0.815008597
   8    C       -1.241268101    -2.575638697    -0.687753157
   9    C       -3.221291383    -1.097019723    -0.491726174
  10    C        2.658148482    -2.576694369    -0.316215024
  11    C        3.252061341    -1.270802602     0.089439261
  12    C       -2.820116851    -0.269620593     0.562948982
  13    C       -3.519235545     0.910558020     0.805377406
  14    C       -4.620336241     1.254564423     0.023883507
  15    C       -5.042960966     0.406400696    -0.999967976
  16    C       -4.349438500    -0.767876011    -1.265272690
  17    C        4.088211044    -0.605829704    -0.805622677
  18    C        4.678127275     0.599478146    -0.429160508
  19    C        4.427695627     1.127323826     0.836217633
  20    C        3.606975430     0.449208936     1.735720151
  21    C        3.014948745    -0.756237791     1.362304769
  22    O        3.395784203    -3.534874838    -0.491093101
  23    O       -5.034138180     3.261816317     1.617038771
  24    O       -6.888211377     2.540228429     0.048771388
  25    O        5.045638418     2.797635593     2.738860738
  26    O        6.422685536     2.797840704     0.615233804
  27    S        0.081708391    -1.388544050    -0.365057755
  28    S       -5.491729613     2.742102190     0.350157031
  29    S        5.165813435     2.647521218     1.307792998
  30    H       -3.163293698    -3.079079215    -1.154964567
  31    H        2.206067770    -5.126547976    -0.946215666
  32    H        0.666246022    -5.898580554    -1.230590115
  33    H       -5.590215031     4.182817072    -1.523498056
  34    H       -4.329441234     4.602585313    -0.539396630
  35    H        3.593758038     4.417449022     1.270315850
  36    H        4.504320234     4.424918977    -0.109482212
  37    H       -1.995934941    -0.543801798     1.219282668
  38    H       -3.195283051     1.555653343     1.634368049
  39    H       -5.926996154     0.649210068    -1.602801833
  40    H       -4.676090504    -1.420447015    -2.071753080
  41    H        4.288816763    -1.034458916    -1.787328638
  42    H        5.346167064     1.108469722    -1.132407784
  43    H        3.426505694     0.843613247     2.742554418
  44    H        2.382376131    -1.295266128     2.066534850


           Empirical Formula: C16 H15 N5 O5 S3  =    44 atoms



      MOLECULAR POINT GROUP   :   C1  


                  EIGENVALUES  
 -38.70977 -37.99764 -36.21178 -35.96714 -35.93386 -31.53659 -31.43909 -30.70161
 -29.60770 -29.34551 -28.44724 -28.17755 -27.88680 -27.03887 -26.68596 -26.57243
 -26.44030 -25.00654 -23.55683 -22.71068 -22.49191 -21.69864 -21.45820 -20.63474
 -20.12495 -19.83461 -19.71136 -18.89666 -18.03604 -17.62391 -17.30612 -17.09754
 -17.06820 -16.90695 -16.54689 -16.35967 -16.19022 -16.01869 -16.01262 -15.80237
 -15.61734 -15.52987 -15.35087 -15.16884 -14.84860 -14.77277 -14.55347 -14.27246
 -14.15200 -14.03736 -13.94875 -13.77134 -13.54210 -13.31680 -12.95909 -12.62424
 -12.61233 -12.50426 -12.35879 -11.99607 -11.88194 -11.72926 -11.71916 -11.61353
 -11.51401 -11.42639 -11.23673 -10.94755 -10.86498 -10.79232 -10.66906 -10.48065
 -10.40769 -10.33431  -9.93254  -8.86544  -1.50992  -1.05589  -0.82670  -0.80144
  -0.70359  -0.45502  -0.26492   0.10326   0.12255   0.29260   0.46773   0.56862
   0.70305   0.77772   0.93102   1.28759   1.41298   1.62224   1.82061   2.13498
   2.38936   2.59657   2.66299   2.70681   2.78158   2.87659   2.96654   3.12071
   3.17040   3.30010   3.51836   3.67845   3.76883   3.82714   3.99143   4.08135
   4.15728   4.26859   4.32093   4.42057   4.47376   4.50451   4.56614   4.60047
   4.61272   4.72916   4.73456   4.77966   4.82057   4.84970   5.00125   5.10780
   5.18132   5.23121   5.25116   5.26059   5.32418   5.34658   5.40161   5.49490
   5.60802   5.73502   5.78899   5.82218   6.04180   6.15570   6.39667   6.43695
   6.44845   6.70770


              NET ATOMIC CHARGES AND DIPOLE CONTRIBUTIONS

  ATOM NO.   TYPE          CHARGE      No. of ELECS.   s-Pop       p-Pop       d-Pop       
    1          N          -0.577631        5.5776     1.77192     3.80571
    2          N          -0.472868        5.4729     1.51911     3.95376
    3          N          -0.524580        5.5246     1.50976     4.01482
    4          N          -0.943043        5.9430     1.65674     4.28631
    5          N          -0.948574        5.9486     1.65778     4.29079
    6          C          -0.597975        4.5980     1.05766     3.54031
    7          C           0.504932        3.4951     1.05159     2.44348
    8          C           0.337552        3.6624     1.11155     2.55090
    9          C           0.242854        3.7571     1.06028     2.69686
   10          C           0.521107        3.4789     1.08409     2.39480
   11          C          -0.067769        4.0678     1.08496     2.98281
   12          C          -0.250264        4.2503     1.07929     3.17097
   13          C          -0.010008        4.0100     1.09246     2.91755
   14          C          -0.412636        4.4126     1.10911     3.30353
   15          C          -0.009992        4.0100     1.08955     2.92044
   16          C          -0.260137        4.2601     1.07873     3.18140
   17          C          -0.141878        4.1419     1.08352     3.05836
   18          C          -0.070464        4.0705     1.08864     2.98183
   19          C          -0.360067        4.3601     1.11151     3.24855
   20          C          -0.072247        4.0722     1.08935     2.98290
   21          C          -0.154923        4.1549     1.08231     3.07261
   22          O          -0.525674        6.5257     1.88215     4.64352
   23          O          -0.914266        6.9143     1.89273     5.02153
   24          O          -0.906496        6.9065     1.89270     5.01380
   25          O          -0.914518        6.9145     1.89267     5.02185
   26          O          -0.906793        6.9068     1.89263     5.01416
   27          S           0.176153        5.8238     1.89124     3.80419     0.12842
   28          S           2.349422        3.6506     1.17065     1.97334     0.50659
   29          S           2.343804        3.6562     1.17359     1.97596     0.50665
   30          H           0.340534        0.6595     0.65947
   31          H           0.353152        0.6468     0.64685
   32          H           0.321629        0.6784     0.67837
   33          H           0.295468        0.7045     0.70453
   34          H           0.294863        0.7051     0.70514
   35          H           0.293078        0.7069     0.70692
   36          H           0.294134        0.7059     0.70587
   37          H           0.180943        0.8191     0.81906
   38          H           0.180536        0.8195     0.81946
   39          H           0.171686        0.8283     0.82831
   40          H           0.166503        0.8335     0.83350
   41          H           0.164995        0.8350     0.83501
   42          H           0.172059        0.8279     0.82794
   43          H           0.174735        0.8253     0.82526
   44          H           0.162663        0.8373     0.83734
 DIPOLE           X         Y         Z       TOTAL
 POINT-CHG.    -4.853    -1.364    -4.627     6.843
 HYBRID         0.423    -0.247    -0.283     0.566
 SUM           -4.430    -1.611    -4.910     6.806


          ATOMIC ORBITAL ELECTRON POPULATIONS

     Atom    s        px        py        pz      x^2-y^2     xz        z^2       yz        xy
    1  N   1.77192   1.16805   1.23640   1.40126
    2  N   1.51911   1.12442   1.20887   1.62047
    3  N   1.50976   1.21576   1.15362   1.64545
    4  N   1.65674   1.44973   1.42525   1.41133
    5  N   1.65778   1.51775   1.41427   1.35878
    6  C   1.05766   1.04471   1.00113   1.49447
    7  C   1.05159   0.81429   0.84246   0.78673
    8  C   1.11155   0.83241   0.87701   0.84148
    9  C   1.06028   0.92351   0.82591   0.94745
   10  C   1.08409   0.85527   0.85098   0.68854
   11  C   1.08496   0.98972   0.99422   0.99887
   12  C   1.07929   1.10777   1.02447   1.03874
   13  C   1.09246   0.93449   0.98605   0.99701
   14  C   1.10911   1.09608   1.12198   1.08546
   15  C   1.08955   1.00966   0.94797   0.96281
   16  C   1.07873   1.03717   1.06343   1.08080
   17  C   1.08352   0.98597   1.00168   1.07071
   18  C   1.08864   0.98744   0.99284   1.00155
   19  C   1.11151   1.10050   1.10691   1.04114
   20  C   1.08935   0.94606   0.98000   1.05684
   21  C   1.08231   1.03833   1.01446   1.01982
   22  O   1.88215   1.66080   1.48282   1.49990
   23  O   1.89273   1.76550   1.77927   1.47676
   24  O   1.89270   1.39914   1.82542   1.78923
   25  O   1.89267   1.81178   1.83408   1.37600
   26  O   1.89263   1.48358   1.83172   1.69885
   27  S   1.89124   0.86480   1.12189   1.81750   0.00851   0.03397   0.01948   0.01026   0.05619
   28  S   1.17065   0.64543   0.69945   0.62847   0.09170   0.11715   0.10315   0.09034   0.10424
   29  S   1.17359   0.63746   0.70567   0.63283   0.06670   0.13030   0.13791   0.08101   0.09073
   30  H   0.65947
   31  H   0.64685
   32  H   0.67837
   33  H   0.70453
   34  H   0.70514
   35  H   0.70692
   36  H   0.70587
   37  H   0.81906
   38  H   0.81946
   39  H   0.82831
   40  H   0.83350
   41  H   0.83501
   42  H   0.82794
   43  H   0.82526
   44  H   0.83734

 **********************
 *                    *
 * JOB ENDED NORMALLY *
 *                    *
 **********************



 TOTAL JOB TIME:             6.79 SECONDS

 == MOPAC DONE ==
