 *******************************************************************************
 **                                                                           **
 **                              MOPAC v23.2.2                                **
 **                                                                           **
 *******************************************************************************
 **          Digital Object Identifier (DOI): 10.5281/zenodo.6511958          **
 **    Visit the DOI location for information on how to cite this program.    **
 *******************************************************************************

                              PM7 CALCULATION RESULTS

 *******************************************************************************
 *  CALCULATION DONE: (MAX THREADS = 24)             Wed Mar 18 11:58:55 2026  *
 *  PM7        - The PM7 Hamiltonian to be used
 *
 *
 *
 *                 CHARGE ON SYSTEM = 0
 *
 *
 *
 *  T=         - A TIME OF 172800.0 SECONDS REQUESTED
 *  DUMP=N     - RESTART FILE WRITTEN EVERY 7200.0 SECONDS REQUESTED
 *******************************************************************************
PM7 CHARGE=0


   ATOM   CHEMICAL          X               Y               Z
  NUMBER   SYMBOL      (ANGSTROMS)     (ANGSTROMS)     (ANGSTROMS)

     1       N         -1.14500000  *  -0.28620000  *  -1.51560000  *
     2       N         -1.78750000  *   0.74520000  *   0.55030000  *
     3       N         -0.07760000  *  -1.13570000  *  -3.38520000  *
     4       N         -7.97520000  *  -1.31550000  *   1.07300000  *
     5       N          7.20320000  *   0.96540000  *   2.40380000  *
     6       C          1.17570000  *  -0.06160000  *  -1.61850000  *
     7       C          0.01240000  *  -0.50450000  *  -2.20530000  *
     8       C         -0.89950000  *   0.35560000  *  -0.39590000  *
     9       C         -3.19200000  *   0.65170000  *   0.55020000  *
    10       C          2.52240000  *  -0.12440000  *  -2.14440000  *
    11       C          3.69420000  *  -0.19090000  *  -1.22860000  *
    12       C         -3.88290000  *   1.02770000  *   1.71800000  *
    13       C         -5.27610000  *   0.93820000  *   1.80550000  *
    14       C         -5.99850000  *   0.45630000  *   0.71620000  *
    15       C         -5.34320000  *   0.08200000  *  -0.45590000  *
    16       C         -3.94840000  *   0.17270000  *  -0.52790000  *
    17       C          4.83210000  *   0.56820000  *  -1.53900000  *
    18       C          5.95950000  *   0.50980000  *  -0.71720000  *
    19       C          5.94550000  *  -0.31460000  *   0.41250000  *
    20       C          4.82810000  *  -1.09960000  *   0.71310000  *
    21       C          3.70180000  *  -1.04030000  *  -0.11230000  *
    22       O          2.76830000  *  -0.13280000  *  -3.35150000  *
    23       O         -8.30510000  *   0.64660000  *  -0.50030000  *
    24       O         -8.21320000  *   0.98360000  *   2.00950000  *
    25       O          7.25160000  *  -1.52740000  *   2.33150000  *
    26       O          8.55190000  *  -0.20380000  *   0.60420000  *
    27       S          0.77760000  *   0.71130000  *  -0.14190000  *
    28       S         -7.76390000  *   0.33290000  *   0.79980000  *
    29       S          7.39200000  *  -0.40040000  *   1.43880000  *
    30       H         -1.40580000  *   1.23360000  *   1.34990000  *
    31       H          0.67790000  *  -1.02450000  *  -4.06150000  *
    32       H         -0.99410000  *  -1.17120000  *  -3.81960000  *
    33       H         -7.11780000  *  -1.85620000  *   0.96540000  *
    34       H         -8.39770000  *  -1.44630000  *   1.99360000  *
    35       H          6.45140000  *   1.58240000  *   2.10170000  *
    36       H          7.09590000  *   0.67240000  *   3.37660000  *
    37       H         -3.33650000  *   1.39990000  *   2.58220000  *
    38       H         -5.77920000  *   1.24670000  *   2.71930000  *
    39       H         -5.90310000  *  -0.27530000  *  -1.31830000  *
    40       H         -3.47150000  *  -0.12780000  *  -1.45690000  *
    41       H          4.84570000  *   1.19610000  *  -2.42890000  *
    42       H          6.84480000  *   1.09110000  *  -0.97100000  *
    43       H          4.83170000  *  -1.77020000  *   1.57080000  *
    44       H          2.84970000  *  -1.67960000  *   0.11000000  *



          CARTESIAN COORDINATES 

    NO.       ATOM           X           Y           Z

     1         N         -1.1450     -0.2862     -1.5156
     2         N         -1.7875      0.7452      0.5503
     3         N         -0.0776     -1.1357     -3.3852
     4         N         -7.9752     -1.3155      1.0730
     5         N          7.2032      0.9654      2.4038
     6         C          1.1757     -0.0616     -1.6185
     7         C          0.0124     -0.5045     -2.2053
     8         C         -0.8995      0.3556     -0.3959
     9         C         -3.1920      0.6517      0.5502
    10         C          2.5224     -0.1244     -2.1444
    11         C          3.6942     -0.1909     -1.2286
    12         C         -3.8829      1.0277      1.7180
    13         C         -5.2761      0.9382      1.8055
    14         C         -5.9985      0.4563      0.7162
    15         C         -5.3432      0.0820     -0.4559
    16         C         -3.9484      0.1727     -0.5279
    17         C          4.8321      0.5682     -1.5390
    18         C          5.9595      0.5098     -0.7172
    19         C          5.9455     -0.3146      0.4125
    20         C          4.8281     -1.0996      0.7131
    21         C          3.7018     -1.0403     -0.1123
    22         O          2.7683     -0.1328     -3.3515
    23         O         -8.3051      0.6466     -0.5003
    24         O         -8.2132      0.9836      2.0095
    25         O          7.2516     -1.5274      2.3315
    26         O          8.5519     -0.2038      0.6042
    27         S          0.7776      0.7113     -0.1419
    28         S         -7.7639      0.3329      0.7998
    29         S          7.3920     -0.4004      1.4388
    30         H         -1.4058      1.2336      1.3499
    31         H          0.6779     -1.0245     -4.0615
    32         H         -0.9941     -1.1712     -3.8196
    33         H         -7.1178     -1.8562      0.9654
    34         H         -8.3977     -1.4463      1.9936
    35         H          6.4514      1.5824      2.1017
    36         H          7.0959      0.6724      3.3766
    37         H         -3.3365      1.3999      2.5822
    38         H         -5.7792      1.2467      2.7193
    39         H         -5.9031     -0.2753     -1.3183
    40         H         -3.4715     -0.1278     -1.4569
    41         H          4.8457      1.1961     -2.4289
    42         H          6.8448      1.0911     -0.9710
    43         H          4.8317     -1.7702      1.5708
    44         H          2.8497     -1.6796      0.1100

 General Reference for PM7:
 "Optimization of Parameters for Semiempirical Methods VI: More Modifications to the 
 NDDO Approximations and Re-optimization of Parameters", J. J. P. Stewart, J. Mol. Mod., 1:32, 19 (2013)
 https://link.springer.com/article/10.1007/s00894-012-1667-x

           Empirical Formula: C16 H15 N5 O5 S3  =    44 atoms



      MOLECULAR POINT GROUP   :   C1  


      RHF CALCULATION, NO. OF DOUBLY OCCUPIED LEVELS = 76


          Geometry optimization using L-BFGS
 CYCLE:     1 TIME:   1.355 TIME LEFT:  2.00D  GRAD.:   167.546 HEAT: -85.11303
 CYCLE:     2 TIME:   0.211 TIME LEFT:  2.00D  GRAD.:   164.542 HEAT: -85.39120
 CYCLE:     3 TIME:   0.328 TIME LEFT:  2.00D  GRAD.:    48.314 HEAT: -95.22006
 CYCLE:     4 TIME:   0.039 TIME LEFT:  2.00D  GRAD.:   164.696 HEAT: -85.39503
 CYCLE:     5 TIME:   0.035 TIME LEFT:  2.00D  GRAD.:    48.334 HEAT: -95.22121
 CYCLE:     6 TIME:   0.031 TIME LEFT:  2.00D  GRAD.:    44.143 HEAT: -96.62451
 CYCLE:     7 TIME:   0.035 TIME LEFT:  2.00D  GRAD.:    41.759 HEAT: -98.40103
 CYCLE:     8 TIME:   0.035 TIME LEFT:  2.00D  GRAD.:    61.508 HEAT: -99.39409
 CYCLE:     9 TIME:   0.031 TIME LEFT:  2.00D  GRAD.:    29.470 HEAT: -100.2317
 CYCLE:    10 TIME:   0.035 TIME LEFT:  2.00D  GRAD.:    19.244 HEAT: -100.7347
 CYCLE:    11 TIME:   0.031 TIME LEFT:  2.00D  GRAD.:    18.848 HEAT: -101.0113
 CYCLE:    12 TIME:   0.035 TIME LEFT:  2.00D  GRAD.:    39.525 HEAT: -101.3760
 CYCLE:    13 TIME:   0.035 TIME LEFT:  2.00D  GRAD.:    15.935 HEAT: -101.7744
 CYCLE:    14 TIME:   0.027 TIME LEFT:  2.00D  GRAD.:    13.639 HEAT: -101.9222
 CYCLE:    15 TIME:   0.035 TIME LEFT:  2.00D  GRAD.:    16.408 HEAT: -102.2285
 CYCLE:    16 TIME:   0.039 TIME LEFT:  2.00D  GRAD.:    37.675 HEAT: -102.3208
 CYCLE:    17 TIME:   0.031 TIME LEFT:  2.00D  GRAD.:    15.109 HEAT: -102.5944
 CYCLE:    18 TIME:   0.031 TIME LEFT:  2.00D  GRAD.:     9.769 HEAT: -102.7439
 CYCLE:    19 TIME:   0.031 TIME LEFT:  2.00D  GRAD.:    11.371 HEAT: -102.8618
 CYCLE:    20 TIME:   0.035 TIME LEFT:  2.00D  GRAD.:    12.201 HEAT: -103.0451
 CYCLE:    21 TIME:   0.035 TIME LEFT:  2.00D  GRAD.:    25.412 HEAT: -103.1268
 CYCLE:    22 TIME:   0.031 TIME LEFT:  2.00D  GRAD.:     9.488 HEAT: -103.2931
 CYCLE:    23 TIME:   0.031 TIME LEFT:  2.00D  GRAD.:    10.350 HEAT: -103.3612
 CYCLE:    24 TIME:   0.035 TIME LEFT:  2.00D  GRAD.:    13.422 HEAT: -103.6092
 CYCLE:    25 TIME:   0.035 TIME LEFT:  2.00D  GRAD.:    16.188 HEAT: -103.8766
 CYCLE:    26 TIME:   0.035 TIME LEFT:  2.00D  GRAD.:    21.349 HEAT: -104.1203
 CYCLE:    27 TIME:   0.035 TIME LEFT:  2.00D  GRAD.:    72.487 HEAT: -103.7270
 CYCLE:    28 TIME:   0.035 TIME LEFT:  2.00D  GRAD.:    77.159 HEAT: -103.1382
 CYCLE:    29 TIME:   0.039 TIME LEFT:  2.00D  GRAD.:   143.588 HEAT: -101.9427
 CYCLE:    30 TIME:   0.031 TIME LEFT:  2.00D  GRAD.:    92.196 HEAT: -101.9748
 CYCLE:    31 TIME:   0.035 TIME LEFT:  2.00D  GRAD.:    32.651 HEAT: -104.6824
 CYCLE:    32 TIME:   0.043 TIME LEFT:  2.00D  GRAD.:   225.984 HEAT: -94.94000
 CYCLE:    33 TIME:   0.039 TIME LEFT:  2.00D  GRAD.:    22.666 HEAT: -105.2642
 CYCLE:    34 TIME:   0.035 TIME LEFT:  2.00D  GRAD.:    58.411 HEAT: -104.7083
 CYCLE:    35 TIME:   0.035 TIME LEFT:  2.00D  GRAD.:    20.898 HEAT: -105.6906
 CYCLE:    36 TIME:   0.035 TIME LEFT:  2.00D  GRAD.:    53.447 HEAT: -104.4040
 CYCLE:    37 TIME:   0.035 TIME LEFT:  2.00D  GRAD.:    16.128 HEAT: -106.1975
 CYCLE:    38 TIME:   0.031 TIME LEFT:  2.00D  GRAD.:    23.510 HEAT: -106.4490
 CYCLE:    39 TIME:   0.035 TIME LEFT:  2.00D  GRAD.:    21.601 HEAT: -106.8343
 CYCLE:    40 TIME:   0.035 TIME LEFT:  2.00D  GRAD.:    60.628 HEAT: -106.5837
 CYCLE:    41 TIME:   0.035 TIME LEFT:  2.00D  GRAD.:    16.408 HEAT: -107.5153
 CYCLE:    42 TIME:   0.031 TIME LEFT:  2.00D  GRAD.:    10.141 HEAT: -107.6175
 CYCLE:    43 TIME:   0.027 TIME LEFT:  2.00D  GRAD.:    12.656 HEAT: -107.7701
 CYCLE:    44 TIME:   0.031 TIME LEFT:  2.00D  GRAD.:    18.148 HEAT: -108.0758
 CYCLE:    45 TIME:   0.035 TIME LEFT:  2.00D  GRAD.:    45.291 HEAT: -108.0735
 CYCLE:    46 TIME:   0.031 TIME LEFT:  2.00D  GRAD.:    14.171 HEAT: -108.4180
 CYCLE:    47 TIME:   0.027 TIME LEFT:  2.00D  GRAD.:     8.664 HEAT: -108.5223
 CYCLE:    48 TIME:   0.035 TIME LEFT:  2.00D  GRAD.:    12.324 HEAT: -108.6495
 CYCLE:    49 TIME:   0.031 TIME LEFT:  2.00D  GRAD.:    14.413 HEAT: -108.7915
 CYCLE:    50 TIME:   0.035 TIME LEFT:  2.00D  GRAD.:    45.893 HEAT: -108.7058
 CYCLE:    51 TIME:   0.031 TIME LEFT:  2.00D  GRAD.:    12.739 HEAT: -109.1059
 CYCLE:    52 TIME:   0.031 TIME LEFT:  2.00D  GRAD.:    10.161 HEAT: -109.2073
 CYCLE:    53 TIME:   0.031 TIME LEFT:  2.00D  GRAD.:    18.050 HEAT: -109.4486
 CYCLE:    54 TIME:   0.035 TIME LEFT:  2.00D  GRAD.:    27.827 HEAT: -109.6431
 CYCLE:    55 TIME:   0.031 TIME LEFT:  2.00D  GRAD.:    17.059 HEAT: -109.8939
 CYCLE:    56 TIME:   0.031 TIME LEFT:  2.00D  GRAD.:    13.619 HEAT: -110.1647
 CYCLE:    57 TIME:   0.035 TIME LEFT:  2.00D  GRAD.:    18.250 HEAT: -110.3149
 CYCLE:    58 TIME:   0.031 TIME LEFT:  2.00D  GRAD.:    14.003 HEAT: -110.5174
 CYCLE:    59 TIME:   0.035 TIME LEFT:  2.00D  GRAD.:    17.404 HEAT: -110.6632
 CYCLE:    60 TIME:   0.031 TIME LEFT:  2.00D  GRAD.:    10.650 HEAT: -110.7597
 CYCLE:    61 TIME:   0.031 TIME LEFT:  2.00D  GRAD.:     9.989 HEAT: -110.8164
 CYCLE:    62 TIME:   0.031 TIME LEFT:  2.00D  GRAD.:    11.029 HEAT: -110.9583
 CYCLE:    63 TIME:   0.031 TIME LEFT:  2.00D  GRAD.:    14.645 HEAT: -111.1410
 CYCLE:    64 TIME:   0.035 TIME LEFT:  2.00D  GRAD.:    14.497 HEAT: -111.2731
 CYCLE:    65 TIME:   0.031 TIME LEFT:  2.00D  GRAD.:    13.269 HEAT: -111.4562
 CYCLE:    66 TIME:   0.031 TIME LEFT:  2.00D  GRAD.:    15.122 HEAT: -111.5542
 CYCLE:    67 TIME:   0.035 TIME LEFT:  2.00D  GRAD.:    11.027 HEAT: -111.6532
 CYCLE:    68 TIME:   0.031 TIME LEFT:  2.00D  GRAD.:     8.653 HEAT: -111.7180
 CYCLE:    69 TIME:   0.027 TIME LEFT:  2.00D  GRAD.:     7.903 HEAT: -111.7809
 CYCLE:    70 TIME:   0.035 TIME LEFT:  2.00D  GRAD.:    19.365 HEAT: -111.8139
 CYCLE:    71 TIME:   0.027 TIME LEFT:  2.00D  GRAD.:     6.956 HEAT: -111.8919
 CYCLE:    72 TIME:   0.031 TIME LEFT:  2.00D  GRAD.:     6.297 HEAT: -111.9249
 CYCLE:    73 TIME:   0.031 TIME LEFT:  2.00D  GRAD.:     7.280 HEAT: -111.9747
 CYCLE:    74 TIME:   0.031 TIME LEFT:  2.00D  GRAD.:    16.335 HEAT: -111.9936
 CYCLE:    75 TIME:   0.031 TIME LEFT:  2.00D  GRAD.:     5.527 HEAT: -112.0489
 CYCLE:    76 TIME:   0.031 TIME LEFT:  2.00D  GRAD.:     4.222 HEAT: -112.0660
 CYCLE:    77 TIME:   0.027 TIME LEFT:  2.00D  GRAD.:     6.015 HEAT: -112.0872
 CYCLE:    78 TIME:   0.031 TIME LEFT:  2.00D  GRAD.:     6.951 HEAT: -112.1150
 CYCLE:    79 TIME:   0.031 TIME LEFT:  2.00D  GRAD.:    12.699 HEAT: -112.1203
 CYCLE:    80 TIME:   0.031 TIME LEFT:  2.00D  GRAD.:     3.534 HEAT: -112.1561
 CYCLE:    81 TIME:   0.031 TIME LEFT:  2.00D  GRAD.:     2.577 HEAT: -112.1624
 CYCLE:    82 TIME:   0.031 TIME LEFT:  2.00D  GRAD.:     3.662 HEAT: -112.1723
 CYCLE:    83 TIME:   0.027 TIME LEFT:  2.00D  GRAD.:     4.506 HEAT: -112.1821
 CYCLE:    84 TIME:   0.031 TIME LEFT:  2.00D  GRAD.:     4.691 HEAT: -112.1932
 CYCLE:    85 TIME:   0.031 TIME LEFT:  2.00D  GRAD.:     3.058 HEAT: -112.2036
 CYCLE:    86 TIME:   0.027 TIME LEFT:  2.00D  GRAD.:     3.980 HEAT: -112.2137
 CYCLE:    87 TIME:   0.031 TIME LEFT:  2.00D  GRAD.:     4.394 HEAT: -112.2237
 CYCLE:    88 TIME:   0.031 TIME LEFT:  2.00D  GRAD.:     7.461 HEAT: -112.2318
 CYCLE:    89 TIME:   0.031 TIME LEFT:  2.00D  GRAD.:     2.468 HEAT: -112.2446
 CYCLE:    90 TIME:   0.031 TIME LEFT:  2.00D  GRAD.:     1.802 HEAT: -112.2479
 CYCLE:    91 TIME:   0.031 TIME LEFT:  2.00D  GRAD.:     1.876 HEAT: -112.2516
 CYCLE:    92 TIME:   0.031 TIME LEFT:  2.00D  GRAD.:     3.412 HEAT: -112.2565
 CYCLE:    93 TIME:   0.031 TIME LEFT:  2.00D  GRAD.:     2.388 HEAT: -112.2615
 CYCLE:    94 TIME:   0.027 TIME LEFT:  2.00D  GRAD.:     1.991 HEAT: -112.2659
 CYCLE:    95 TIME:   0.035 TIME LEFT:  2.00D  GRAD.:     2.812 HEAT: -112.2719
 CYCLE:    96 TIME:   0.027 TIME LEFT:  2.00D  GRAD.:     3.348 HEAT: -112.2766
 CYCLE:    97 TIME:   0.031 TIME LEFT:  2.00D  GRAD.:     2.537 HEAT: -112.2815
 CYCLE:    98 TIME:   0.031 TIME LEFT:  2.00D  GRAD.:     2.821 HEAT: -112.2893
 CYCLE:    99 TIME:   0.031 TIME LEFT:  2.00D  GRAD.:     2.917 HEAT: -112.2944
 CYCLE:   100 TIME:   0.031 TIME LEFT:  2.00D  GRAD.:     2.590 HEAT: -112.3000
 CYCLE:   101 TIME:   0.031 TIME LEFT:  2.00D  GRAD.:     4.532 HEAT: -112.3052
 CYCLE:   102 TIME:   0.031 TIME LEFT:  2.00D  GRAD.:     2.409 HEAT: -112.3114
 CYCLE:   103 TIME:   0.027 TIME LEFT:  2.00D  GRAD.:     1.607 HEAT: -112.3138
 CYCLE:   104 TIME:   0.035 TIME LEFT:  2.00D  GRAD.:     1.431 HEAT: -112.3166
 CYCLE:   105 TIME:   0.031 TIME LEFT:  2.00D  GRAD.:     2.557 HEAT: -112.3191
 CYCLE:   106 TIME:   0.031 TIME LEFT:  2.00D  GRAD.:     1.956 HEAT: -112.3224
 CYCLE:   107 TIME:   0.031 TIME LEFT:  2.00D  GRAD.:     2.362 HEAT: -112.3254
 CYCLE:   108 TIME:   0.031 TIME LEFT:  2.00D  GRAD.:     3.426 HEAT: -112.3271
 CYCLE:   109 TIME:   0.031 TIME LEFT:  2.00D  GRAD.:     1.688 HEAT: -112.3305
 CYCLE:   110 TIME:   0.031 TIME LEFT:  2.00D  GRAD.:     1.340 HEAT: -112.3327
 CYCLE:   111 TIME:   0.031 TIME LEFT:  2.00D  GRAD.:     1.436 HEAT: -112.3357
 CYCLE:   112 TIME:   0.035 TIME LEFT:  2.00D  GRAD.:     2.329 HEAT: -112.3403
 CYCLE:   113 TIME:   0.035 TIME LEFT:  2.00D  GRAD.:     4.708 HEAT: -112.3403
 CYCLE:   114 TIME:   0.031 TIME LEFT:  2.00D  GRAD.:     1.342 HEAT: -112.3444
 CYCLE:   115 TIME:   0.031 TIME LEFT:  2.00D  GRAD.:     0.867 HEAT: -112.3449

 -------------------------------------------------------------------------------
 PM7 CHARGE=0




     HERBERTS TEST WAS SATISFIED IN BFGS                      
     SCF FIELD WAS ACHIEVED                                   


                              PM7 CALCULATION
                                                       MOPAC v23.2.2 Linux
                                                       Wed Mar 18 11:59:00 2026




          FINAL HEAT OF FORMATION =       -112.34495 KCAL/MOL =    -470.05127 KJ/MOL


          COSMO AREA              =        412.59 SQUARE ANGSTROMS
          COSMO VOLUME            =        461.69 CUBIC ANGSTROMS

          GRADIENT NORM           =          0.86733          =       0.13076 PER ATOM
          IONIZATION POTENTIAL    =          8.893185 EV
          HOMO LUMO ENERGIES (EV) =         -8.893 -1.469
          NO. OF FILLED LEVELS    =         76
          MOLECULAR WEIGHT        =        453.5050         POINT GROUP:  C1  

          MOLECULAR DIMENSIONS (Angstroms)

            Atom       Atom       Distance
            H    33    O    26    16.92965
            H    31    H    36     7.60711
            O    24    H    43     4.72568


          SCF CALCULATIONS        =        116

          WALL-CLOCK TIME         =      5.563 SECONDS
          COMPUTATION TIME        =          2 MINUTES AND 11.454 SECONDS




   ATOM   CHEMICAL          X               Y               Z
  NUMBER   SYMBOL      (ANGSTROMS)     (ANGSTROMS)     (ANGSTROMS)

     1       N         -1.17350230  *   0.02511617  *  -1.55834867  *
     2       N         -1.76913269  *   0.85430042  *   0.61826326  *
     3       N         -0.12883597  *  -0.75394059  *  -3.53250988  *
     4       N         -7.88894675  *  -1.36937017  *   1.33816647  *
     5       N          6.96075407  *   1.01142549  *   2.53250522  *
     6       C          1.20847566  *  -0.14359689  *  -1.57158493  *
     7       C         -0.00468544  *  -0.30658383  *  -2.26878496  *
     8       C         -0.88083805  *   0.46810560  *  -0.34069576  *
     9       C         -3.17853614  *   0.72843217  *   0.56402354  *
    10       C          2.47889797  *  -0.50053155  *  -2.11725048  *
    11       C          3.68227251  *  -0.42863190  *  -1.24221399  *
    12       C         -3.87074971  *   1.06193188  *   1.74644052  *
    13       C         -5.25158912  *   0.92789567  *   1.79381303  *
    14       C         -5.95188770  *   0.46515927  *   0.67888892  *
    15       C         -5.26820304  *   0.16743059  *  -0.49795780  *
    16       C         -3.88379321  *   0.29791481  *  -0.56405555  *
    17       C          4.70802492  *   0.45654623  *  -1.56616867  *
    18       C          5.84540357  *   0.51170637  *  -0.76174792  *
    19       C          5.94373018  *  -0.31602558  *   0.35494090  *
    20       C          4.92633426  *  -1.21837601  *   0.66085849  *
    21       C          3.78864516  *  -1.27687627  *  -0.14129428  *
    22       O          2.59734286  *  -0.87579432  *  -3.27313328  *
    23       O         -8.22067029  *   0.26562161  *  -0.58253899  *
    24       O         -8.20876889  *   1.10378074  *   1.80790869  *
    25       O          7.45425137  *  -1.44998589  *   2.15086173  *
    26       O          8.46971711  *   0.29105078  *   0.61895895  *
    27       S          0.90572270  *   0.52004172  *   0.00692938  *
    28       S         -7.68853438  *   0.25761456  *   0.75975218  *
    29       S          7.36254816  *  -0.23067205  *   1.38319595  *
    30       H         -1.39053503  *   1.23212975  *   1.49013692  *
    31       H          0.71472941  *  -0.99714256  *  -4.04639392  *
    32       H         -1.02441111  *  -0.86534436  *  -3.96378520  *
    33       H         -8.29979249  *  -2.03056782  *   0.70062476  *
    34       H         -8.28437810  *  -1.47393561  *   2.25765444  *
    35       H          7.52147836  *   1.84698366  *   2.50954901  *
    36       H          6.80787225  *   0.71482636  *   3.48175956  *
    37       H         -3.33445095  *   1.41766044  *   2.62208366  *
    38       H         -5.78111525  *   1.19538721  *   2.71779238  *
    39       H         -5.80723479  *  -0.16925967  *  -1.39409644  *
    40       H         -3.37077921  *   0.05928350  *  -1.49977136  *
    41       H          4.62453430  *   1.09036463  *  -2.44904145  *
    42       H          6.65622435  *   1.19838479  *  -1.03024848  *
    43       H          5.00876093  *  -1.89398080  *   1.51973179  *
    44       H          2.99519374  *  -1.98790875  *   0.08704271  *

                             CARTESIAN COORDINATES

   1    N       -1.173502301     0.025116169    -1.558348666
   2    N       -1.769132689     0.854300419     0.618263260
   3    N       -0.128835968    -0.753940586    -3.532509877
   4    N       -7.888946752    -1.369370175     1.338166470
   5    N        6.960754071     1.011425492     2.532505215
   6    C        1.208475655    -0.143596893    -1.571584927
   7    C       -0.004685442    -0.306583827    -2.268784957
   8    C       -0.880838050     0.468105600    -0.340695757
   9    C       -3.178536145     0.728432170     0.564023541
  10    C        2.478897975    -0.500531554    -2.117250485
  11    C        3.682272508    -0.428631902    -1.242213989
  12    C       -3.870749714     1.061931882     1.746440520
  13    C       -5.251589117     0.927895668     1.793813032
  14    C       -5.951887703     0.465159274     0.678888925
  15    C       -5.268203045     0.167430586    -0.497957802
  16    C       -3.883793207     0.297914809    -0.564055551
  17    C        4.708024917     0.456546233    -1.566168666
  18    C        5.845403568     0.511706366    -0.761747922
  19    C        5.943730176    -0.316025577     0.354940900
  20    C        4.926334261    -1.218376012     0.660858491
  21    C        3.788645156    -1.276876271    -0.141294277
  22    O        2.597342861    -0.875794317    -3.273133282
  23    O       -8.220670290     0.265621607    -0.582538986
  24    O       -8.208768889     1.103780738     1.807908694
  25    O        7.454251372    -1.449985892     2.150861734
  26    O        8.469717114     0.291050777     0.618958950
  27    S        0.905722697     0.520041718     0.006929377
  28    S       -7.688534381     0.257614556     0.759752185
  29    S        7.362548162    -0.230672047     1.383195955
  30    H       -1.390535031     1.232129754     1.490136919
  31    H        0.714729405    -0.997142561    -4.046393917
  32    H       -1.024411110    -0.865344363    -3.963785199
  33    H       -8.299792492    -2.030567816     0.700624756
  34    H       -8.284378105    -1.473935613     2.257654441
  35    H        7.521478356     1.846983661     2.509549013
  36    H        6.807872250     0.714826363     3.481759558
  37    H       -3.334450953     1.417660438     2.622083655
  38    H       -5.781115248     1.195387209     2.717792382
  39    H       -5.807234792    -0.169259669    -1.394096444
  40    H       -3.370779212     0.059283496    -1.499771361
  41    H        4.624534303     1.090364634    -2.449041449
  42    H        6.656224351     1.198384788    -1.030248476
  43    H        5.008760926    -1.893980796     1.519731794
  44    H        2.995193737    -1.987908751     0.087042713


           Empirical Formula: C16 H15 N5 O5 S3  =    44 atoms



      MOLECULAR POINT GROUP   :   C1  


                  EIGENVALUES  
 -38.70242 -38.12646 -36.11584 -36.05986 -35.98839 -31.48818 -31.32706 -30.76639
 -29.44080 -29.37296 -28.53963 -28.00145 -27.91481 -26.86830 -26.77662 -26.47313
 -26.34984 -24.91448 -23.66578 -22.71017 -22.41518 -21.73475 -21.50406 -20.57628
 -19.91233 -19.73570 -19.70877 -18.82363 -18.08591 -17.68232 -17.17531 -17.11009
 -17.07253 -16.72674 -16.48439 -16.41063 -16.11445 -16.01596 -15.86530 -15.72327
 -15.65738 -15.49184 -15.20786 -15.11940 -14.92424 -14.80680 -14.52923 -14.14589
 -14.12485 -13.98854 -13.88352 -13.79144 -13.58345 -13.29188 -12.85480 -12.65189
 -12.53818 -12.46166 -12.37821 -11.84208 -11.75206 -11.72723 -11.64205 -11.63550
 -11.52849 -11.44302 -11.14316 -10.90345 -10.72195 -10.69014 -10.66435 -10.53479
 -10.43532 -10.35971  -9.85462  -8.89318  -1.46927  -1.13981  -0.83879  -0.60765
  -0.56637  -0.53065  -0.29023   0.04551   0.05109   0.23897   0.46077   0.64712
   0.69353   0.75714   1.02008   1.30867   1.55282   1.58083   1.79541   1.97446
   2.57062   2.58564   2.65473   2.73957   2.84579   2.91014   2.93782   3.13706
   3.22167   3.45263   3.55025   3.79729   3.88845   3.91583   4.05483   4.22452
   4.24243   4.28914   4.36870   4.44422   4.48391   4.54949   4.57783   4.64302
   4.67305   4.68562   4.71319   4.78377   4.93075   4.97427   5.04012   5.11300
   5.23548   5.30089   5.30716   5.33157   5.39343   5.43203   5.47713   5.58775
   5.70921   5.79782   5.87900   5.95305   6.02429   6.31316   6.33711   6.38287
   6.61105   6.68951


              NET ATOMIC CHARGES AND DIPOLE CONTRIBUTIONS

  ATOM NO.   TYPE          CHARGE      No. of ELECS.   s-Pop       p-Pop       d-Pop       
    1          N          -0.573341        5.5733     1.76782     3.80552
    2          N          -0.462654        5.4627     1.52005     3.94261
    3          N          -0.522937        5.5229     1.50969     4.01325
    4          N          -0.945234        5.9452     1.65617     4.28906
    5          N          -0.949407        5.9494     1.65694     4.29247
    6          C          -0.603669        4.6037     1.05725     3.54642
    7          C           0.508674        3.4913     1.05290     2.43842
    8          C           0.345808        3.6542     1.10903     2.54516
    9          C           0.248591        3.7514     1.06307     2.68834
   10          C           0.521894        3.4781     1.08397     2.39414
   11          C          -0.072387        4.0724     1.08443     2.98796
   12          C          -0.282469        4.2825     1.07596     3.20651
   13          C          -0.012199        4.0122     1.08927     2.92293
   14          C          -0.419656        4.4197     1.10691     3.31274
   15          C          -0.011106        4.0111     1.09224     2.91887
   16          C          -0.243036        4.2430     1.08436     3.15868
   17          C          -0.139480        4.1395     1.08382     3.05566
   18          C          -0.071903        4.0719     1.08922     2.98268
   19          C          -0.358030        4.3580     1.11176     3.24627
   20          C          -0.071582        4.0716     1.08887     2.98272
   21          C          -0.154568        4.1546     1.08282     3.07175
   22          O          -0.522817        6.5228     1.88189     4.64093
   23          O          -0.913030        6.9130     1.89286     5.02017
   24          O          -0.917077        6.9171     1.89269     5.02439
   25          O          -0.914288        6.9143     1.89266     5.02162
   26          O          -0.906921        6.9069     1.89262     5.01430
   27          S           0.162928        5.8371     1.89222     3.81425     0.13060
   28          S           2.359083        3.6409     1.16919     1.96833     0.50340
   29          S           2.344999        3.6550     1.17312     1.97522     0.50665
   30          H           0.330198        0.6698     0.66980
   31          H           0.353649        0.6464     0.64635
   32          H           0.321463        0.6785     0.67854
   33          H           0.294459        0.7055     0.70554
   34          H           0.293824        0.7062     0.70618
   35          H           0.294684        0.7053     0.70532
   36          H           0.293160        0.7068     0.70684
   37          H           0.159033        0.8410     0.84097
   38          H           0.174645        0.8254     0.82535
   39          H           0.177460        0.8225     0.82254
   40          H           0.205894        0.7941     0.79411
   41          H           0.165809        0.8342     0.83419
   42          H           0.174881        0.8251     0.82512
   43          H           0.173782        0.8262     0.82622
   44          H           0.162872        0.8371     0.83713
 DIPOLE           X         Y         Z       TOTAL
 POINT-CHG.    -2.887     0.710     2.830     4.105
 HYBRID         0.285    -0.349    -0.148     0.474
 SUM           -2.602     0.361     2.682     3.754


          ATOMIC ORBITAL ELECTRON POPULATIONS

     Atom    s        px        py        pz      x^2-y^2     xz        z^2       yz        xy
    1  N   1.76782   1.31272   1.36103   1.13177
    2  N   1.52005   1.11842   1.58965   1.23454
    3  N   1.50969   1.22758   1.60412   1.18154
    4  N   1.65617   1.73744   1.30945   1.24217
    5  N   1.65694   1.69628   1.29900   1.29719
    6  C   1.05725   1.04235   1.44335   1.06072
    7  C   1.05290   0.84668   0.78544   0.80630
    8  C   1.10903   0.87890   0.83363   0.83263
    9  C   1.06307   0.77559   0.92960   0.98315
   10  C   1.08397   0.88205   0.69039   0.82169
   11  C   1.08443   1.00538   0.99465   0.98793
   12  C   1.07596   1.02917   1.12815   1.04919
   13  C   1.08927   0.98514   0.90116   1.03663
   14  C   1.10691   1.11426   1.16013   1.03835
   15  C   1.09224   0.99154   0.90060   1.02673
   16  C   1.08436   1.01474   1.06987   1.07406
   17  C   1.08382   0.97552   1.02775   1.05239
   18  C   1.08922   1.02914   0.99426   0.95928
   19  C   1.11176   1.09599   1.06962   1.08066
   20  C   1.08887   0.95964   0.98923   1.03385
   21  C   1.08282   1.04856   1.03616   0.98703
   22  O   1.88189   1.88914   1.46559   1.28619
   23  O   1.89286   1.78140   1.81929   1.41948
   24  O   1.89269   1.78487   1.67307   1.56644
   25  O   1.89266   1.82668   1.50072   1.69422
   26  O   1.89262   1.56934   1.74789   1.69706
   27  S   1.89222   0.91006   1.72749   1.17670   0.03686   0.01024   0.04014   0.02973   0.01364
   28  S   1.16919   0.70715   0.63133   0.62985   0.10298   0.09293   0.15409   0.11736   0.03604
   29  S   1.17312   0.67764   0.62968   0.66790   0.11445   0.12083   0.06026   0.13110   0.08001
   30  H   0.66980
   31  H   0.64635
   32  H   0.67854
   33  H   0.70554
   34  H   0.70618
   35  H   0.70532
   36  H   0.70684
   37  H   0.84097
   38  H   0.82535
   39  H   0.82254
   40  H   0.79411
   41  H   0.83419
   42  H   0.82512
   43  H   0.82622
   44  H   0.83713

 **********************
 *                    *
 * JOB ENDED NORMALLY *
 *                    *
 **********************



 TOTAL JOB TIME:             5.56 SECONDS

 == MOPAC DONE ==
