 *******************************************************************************
 **                                                                           **
 **                              MOPAC v23.2.2                                **
 **                                                                           **
 *******************************************************************************
 **          Digital Object Identifier (DOI): 10.5281/zenodo.6511958          **
 **    Visit the DOI location for information on how to cite this program.    **
 *******************************************************************************

                              PM7 CALCULATION RESULTS

 *******************************************************************************
 *  CALCULATION DONE: (MAX THREADS = 24)             Mon Mar 30 13:16:50 2026  *
 *  PM7        - The PM7 Hamiltonian to be used
 *
 *
 *
 *                 CHARGE ON SYSTEM = 0
 *
 *
 *
 *  1SCF       - DO 1 SCF AND THEN STOP 
 *  T=         - A TIME OF 172800.0 SECONDS REQUESTED
 *  DUMP=N     - RESTART FILE WRITTEN EVERY 7200.0 SECONDS REQUESTED
 *******************************************************************************
PM7 CHARGE=0 1SCF


   ATOM   CHEMICAL          X               Y               Z
  NUMBER   SYMBOL      (ANGSTROMS)     (ANGSTROMS)     (ANGSTROMS)

     1       N         -0.79875922     -3.86176358     -0.97948331   
     2       N         -2.56701833     -2.36512954     -0.70124415   
     3       N          1.20090307     -5.08857276     -1.19039105   
     4       N         -5.14826153      3.66592004     -1.12762999   
     5       N          4.25130946      3.80131133      0.26490516   
     6       C          1.25259307     -2.72840316     -0.51403035   
     7       C          0.59991967     -3.92932035     -0.89988600   
     8       C         -1.24694128     -2.63064244     -0.67989185   
     9       C         -3.15570236     -1.10510724     -0.40917057   
    10       C          2.63858895     -2.60255167     -0.27842304   
    11       C          3.18589516     -1.28489019      0.15623501   
    12       C         -2.74023261     -0.31146559      0.66408880   
    13       C         -3.37659321      0.90705798      0.89192312   
    14       C         -4.43134879      1.31823585      0.07794611   
    15       C         -4.86565318      0.50186120     -0.96987851   
    16       C         -4.23288917     -0.70912904     -1.21846419   
    17       C          3.95312355     -0.55172022     -0.74659285   
    18       C          4.48659872      0.67414583     -0.35530018   
    19       C          4.24516445      1.15641770      0.93202980   
    20       C          3.48177088      0.41596893      1.83285933   
    21       C          2.95286819     -0.81523169      1.44678837   
    22       O          3.41947916     -3.53986969     -0.42562822   
    23       O         -4.43625917      3.59055836      1.35891120   
    24       O         -6.63285894      2.61180361      0.65973434   
    25       O          4.38254001      3.05821589      2.72739558   
    26       O          6.35007631      2.68000674      1.22006035   
    27       S          0.08226448     -1.44675029     -0.32903924   
    28       S         -5.21771518      2.84113791      0.37784532   
    29       S          4.90372260      2.69745232      1.41238240   
    30       H         -3.20887806     -3.10427412     -1.04978244   
    31       H          2.21146588     -5.16779535     -1.11299908   
    32       H          0.68116725     -5.91282892     -1.45754857   
    33       H         -4.40879197      4.35908892     -1.22321121   
    34       H         -6.02257501      4.08171576     -1.44394113   
    35       H          4.92572167      4.22255450     -0.37337443   
    36       H          3.66841137      4.54259591      0.64921609   
    37       H         -1.95763037     -0.63625667      1.35140449   
    38       H         -3.03211141      1.52737531      1.73233374   
    39       H         -5.70538263      0.79564035     -1.61422280   
    40       H         -4.57121321     -1.34500209     -2.03962522   
    41       H          4.13812701     -0.93329159     -1.75298552   
    42       H          5.09180125      1.23826952     -1.07548833   
    43       H          3.28649275      0.78304068      2.84956838   
    44       H          2.36678142     -1.40003944      2.15837347   



          CARTESIAN COORDINATES 

    NO.       ATOM           X           Y           Z

     1         N         -0.7988     -3.8618     -0.9795
     2         N         -2.5670     -2.3651     -0.7012
     3         N          1.2009     -5.0886     -1.1904
     4         N         -5.1483      3.6659     -1.1276
     5         N          4.2513      3.8013      0.2649
     6         C          1.2526     -2.7284     -0.5140
     7         C          0.5999     -3.9293     -0.8999
     8         C         -1.2469     -2.6306     -0.6799
     9         C         -3.1557     -1.1051     -0.4092
    10         C          2.6386     -2.6026     -0.2784
    11         C          3.1859     -1.2849      0.1562
    12         C         -2.7402     -0.3115      0.6641
    13         C         -3.3766      0.9071      0.8919
    14         C         -4.4313      1.3182      0.0779
    15         C         -4.8657      0.5019     -0.9699
    16         C         -4.2329     -0.7091     -1.2185
    17         C          3.9531     -0.5517     -0.7466
    18         C          4.4866      0.6741     -0.3553
    19         C          4.2452      1.1564      0.9320
    20         C          3.4818      0.4160      1.8329
    21         C          2.9529     -0.8152      1.4468
    22         O          3.4195     -3.5399     -0.4256
    23         O         -4.4363      3.5906      1.3589
    24         O         -6.6329      2.6118      0.6597
    25         O          4.3825      3.0582      2.7274
    26         O          6.3501      2.6800      1.2201
    27         S          0.0823     -1.4468     -0.3290
    28         S         -5.2177      2.8411      0.3778
    29         S          4.9037      2.6975      1.4124
    30         H         -3.2089     -3.1043     -1.0498
    31         H          2.2115     -5.1678     -1.1130
    32         H          0.6812     -5.9128     -1.4575
    33         H         -4.4088      4.3591     -1.2232
    34         H         -6.0226      4.0817     -1.4439
    35         H          4.9257      4.2226     -0.3734
    36         H          3.6684      4.5426      0.6492
    37         H         -1.9576     -0.6363      1.3514
    38         H         -3.0321      1.5274      1.7323
    39         H         -5.7054      0.7956     -1.6142
    40         H         -4.5712     -1.3450     -2.0396
    41         H          4.1381     -0.9333     -1.7530
    42         H          5.0918      1.2383     -1.0755
    43         H          3.2865      0.7830      2.8496
    44         H          2.3668     -1.4000      2.1584

 General Reference for PM7:
 "Optimization of Parameters for Semiempirical Methods VI: More Modifications to the 
 NDDO Approximations and Re-optimization of Parameters", J. J. P. Stewart, J. Mol. Mod., 1:32, 19 (2013)
 https://link.springer.com/article/10.1007/s00894-012-1667-x

           Empirical Formula: C16 H15 N5 O5 S3  =    44 atoms



      MOLECULAR POINT GROUP   :   C1  


      RHF CALCULATION, NO. OF DOUBLY OCCUPIED LEVELS = 76


 -------------------------------------------------------------------------------
 PM7 CHARGE=0 1SCF




     1SCF WAS SPECIFIED, SO BFGS WAS NOT USED                 
     SCF FIELD WAS ACHIEVED                                   


                              PM7 CALCULATION
                                                       MOPAC v23.2.2 Linux
                                                       Mon Mar 30 13:16:51 2026




          FINAL HEAT OF FORMATION =       -107.32544 KCAL/MOL =    -449.04965 KJ/MOL


          COSMO AREA              =        412.92 SQUARE ANGSTROMS
          COSMO VOLUME            =        464.00 CUBIC ANGSTROMS

          IONIZATION POTENTIAL    =          8.848827 EV
          HOMO LUMO ENERGIES (EV) =         -8.849 -1.561
          NO. OF FILLED LEVELS    =         76
          MOLECULAR WEIGHT        =        453.5050         POINT GROUP:  C1  

          MOLECULAR DIMENSIONS (Angstroms)

            Atom       Atom       Distance
            O    26    O    24    12.99520
            H    36    H    32    10.62451
            H    34    H    43     4.44304


          SCF CALCULATIONS        =          1

          WALL-CLOCK TIME         =      1.039 SECONDS
          COMPUTATION TIME        =     23.905 SECONDS




   ATOM   CHEMICAL          X               Y               Z
  NUMBER   SYMBOL      (ANGSTROMS)     (ANGSTROMS)     (ANGSTROMS)

     1       N         -0.79875922     -3.86176358     -0.97948331   
     2       N         -2.56701833     -2.36512954     -0.70124415   
     3       N          1.20090307     -5.08857276     -1.19039105   
     4       N         -5.14826153      3.66592004     -1.12762999   
     5       N          4.25130946      3.80131133      0.26490516   
     6       C          1.25259307     -2.72840316     -0.51403035   
     7       C          0.59991967     -3.92932035     -0.89988600   
     8       C         -1.24694128     -2.63064244     -0.67989185   
     9       C         -3.15570236     -1.10510724     -0.40917057   
    10       C          2.63858895     -2.60255167     -0.27842304   
    11       C          3.18589516     -1.28489019      0.15623501   
    12       C         -2.74023261     -0.31146559      0.66408880   
    13       C         -3.37659321      0.90705798      0.89192312   
    14       C         -4.43134879      1.31823585      0.07794611   
    15       C         -4.86565318      0.50186120     -0.96987851   
    16       C         -4.23288917     -0.70912904     -1.21846419   
    17       C          3.95312355     -0.55172022     -0.74659285   
    18       C          4.48659872      0.67414583     -0.35530018   
    19       C          4.24516445      1.15641770      0.93202980   
    20       C          3.48177088      0.41596893      1.83285933   
    21       C          2.95286819     -0.81523169      1.44678837   
    22       O          3.41947916     -3.53986969     -0.42562822   
    23       O         -4.43625917      3.59055836      1.35891120   
    24       O         -6.63285894      2.61180361      0.65973434   
    25       O          4.38254001      3.05821589      2.72739558   
    26       O          6.35007631      2.68000674      1.22006035   
    27       S          0.08226448     -1.44675029     -0.32903924   
    28       S         -5.21771518      2.84113791      0.37784532   
    29       S          4.90372260      2.69745232      1.41238240   
    30       H         -3.20887806     -3.10427412     -1.04978244   
    31       H          2.21146588     -5.16779535     -1.11299908   
    32       H          0.68116725     -5.91282892     -1.45754857   
    33       H         -4.40879197      4.35908892     -1.22321121   
    34       H         -6.02257501      4.08171576     -1.44394113   
    35       H          4.92572167      4.22255450     -0.37337443   
    36       H          3.66841137      4.54259591      0.64921609   
    37       H         -1.95763037     -0.63625667      1.35140449   
    38       H         -3.03211141      1.52737531      1.73233374   
    39       H         -5.70538263      0.79564035     -1.61422280   
    40       H         -4.57121321     -1.34500209     -2.03962522   
    41       H          4.13812701     -0.93329159     -1.75298552   
    42       H          5.09180125      1.23826952     -1.07548833   
    43       H          3.28649275      0.78304068      2.84956838   
    44       H          2.36678142     -1.40003944      2.15837347   

                             CARTESIAN COORDINATES

   1    N       -0.798759217    -3.861763581    -0.979483315
   2    N       -2.567018334    -2.365129544    -0.701244146
   3    N        1.200903071    -5.088572755    -1.190391054
   4    N       -5.148261535     3.665920037    -1.127629991
   5    N        4.251309455     3.801311334     0.264905161
   6    C        1.252593070    -2.728403163    -0.514030351
   7    C        0.599919675    -3.929320353    -0.899885998
   8    C       -1.246941284    -2.630642443    -0.679891854
   9    C       -3.155702362    -1.105107242    -0.409170566
  10    C        2.638588950    -2.602551670    -0.278423037
  11    C        3.185895163    -1.284890187     0.156235013
  12    C       -2.740232607    -0.311465591     0.664088796
  13    C       -3.376593214     0.907057981     0.891923116
  14    C       -4.431348793     1.318235847     0.077946114
  15    C       -4.865653178     0.501861197    -0.969878512
  16    C       -4.232889172    -0.709129035    -1.218464190
  17    C        3.953123553    -0.551720222    -0.746592849
  18    C        4.486598721     0.674145833    -0.355300177
  19    C        4.245164449     1.156417701     0.932029802
  20    C        3.481770884     0.415968928     1.832859325
  21    C        2.952868194    -0.815231689     1.446788366
  22    O        3.419479158    -3.539869693    -0.425628223
  23    O       -4.436259165     3.590558365     1.358911201
  24    O       -6.632858937     2.611803612     0.659734336
  25    O        4.382540006     3.058215886     2.727395582
  26    O        6.350076307     2.680006740     1.220060353
  27    S        0.082264475    -1.446750292    -0.329039241
  28    S       -5.217715182     2.841137913     0.377845319
  29    S        4.903722604     2.697452323     1.412382404
  30    H       -3.208878061    -3.104274124    -1.049782442
  31    H        2.211465877    -5.167795350    -1.112999084
  32    H        0.681167247    -5.912828924    -1.457548567
  33    H       -4.408791968     4.359088918    -1.223211214
  34    H       -6.022575009     4.081715755    -1.443941129
  35    H        4.925721674     4.222554505    -0.373374425
  36    H        3.668411366     4.542595912     0.649216088
  37    H       -1.957630373    -0.636256670     1.351404490
  38    H       -3.032111411     1.527375306     1.732333739
  39    H       -5.705382629     0.795640347    -1.614222796
  40    H       -4.571213211    -1.345002087    -2.039625219
  41    H        4.138127005    -0.933291593    -1.752985520
  42    H        5.091801249     1.238269519    -1.075488335
  43    H        3.286492751     0.783040675     2.849568381
  44    H        2.366781417    -1.400039442     2.158373470


           Empirical Formula: C16 H15 N5 O5 S3  =    44 atoms



      MOLECULAR POINT GROUP   :   C1  


                  EIGENVALUES  
 -38.75185 -38.07869 -36.42293 -36.09807 -35.88105 -31.64560 -31.36572 -30.50641
 -29.42086 -29.10173 -28.40298 -27.72526 -27.40057 -27.07708 -26.73114 -26.54405
 -26.39117 -25.00176 -23.59202 -22.77428 -22.57816 -21.65004 -21.53545 -20.75160
 -20.25545 -19.89189 -19.73352 -18.96738 -18.04782 -17.62049 -17.42363 -17.07272
 -17.06504 -16.99929 -16.64046 -16.34902 -16.18731 -15.98811 -15.91629 -15.79062
 -15.63019 -15.48905 -15.41117 -15.09810 -14.88913 -14.77164 -14.47282 -14.24062
 -14.11490 -14.01910 -13.87895 -13.68818 -13.48595 -13.36125 -13.02879 -12.56214
 -12.54357 -12.47291 -12.25345 -11.82161 -11.72583 -11.64173 -11.50619 -11.47373
 -11.37053 -11.32999 -11.19603 -11.05823 -11.01662 -10.80832 -10.77989 -10.41998
 -10.32845 -10.29376 -10.03811  -8.84883  -1.56078  -1.05926  -0.88682  -0.83948
  -0.69319  -0.44131  -0.22742   0.11792   0.14314   0.30878   0.42046   0.54156
   0.71086   0.80770   0.88797   1.21194   1.45442   1.61777   1.86170   2.09307
   2.20034   2.54217   2.56394   2.62065   2.74328   2.89472   2.96277   3.04575
   3.16870   3.22098   3.50880   3.61904   3.67813   3.82750   3.88559   3.97783
   4.12352   4.17250   4.32093   4.35514   4.39679   4.40282   4.52035   4.59341
   4.60593   4.66238   4.71556   4.72410   4.76646   4.83121   4.97272   5.02111
   5.05049   5.09266   5.13181   5.25415   5.25758   5.26934   5.38010   5.40232
   5.59702   5.61133   5.76112   5.81912   5.84009   5.94181   6.09870   6.27040
   6.29223   6.60072


              NET ATOMIC CHARGES AND DIPOLE CONTRIBUTIONS

  ATOM NO.   TYPE          CHARGE      No. of ELECS.   s-Pop       p-Pop       d-Pop       
    1          N          -0.587845        5.5878     1.77368     3.81417
    2          N          -0.468028        5.4680     1.51977     3.94826
    3          N          -0.518175        5.5182     1.50796     4.01021
    4          N          -0.929104        5.9291     1.66624     4.26287
    5          N          -0.931091        5.9311     1.66935     4.26174
    6          C          -0.596660        4.5967     1.05519     3.54147
    7          C           0.514851        3.4851     1.05098     2.43417
    8          C           0.344335        3.6557     1.11012     2.54555
    9          C           0.232973        3.7670     1.06108     2.70595
   10          C           0.513100        3.4869     1.08155     2.40535
   11          C          -0.060533        4.0605     1.08552     2.97501
   12          C          -0.237784        4.2378     1.08109     3.15669
   13          C          -0.011740        4.0117     1.09340     2.91834
   14          C          -0.412322        4.4123     1.10744     3.30488
   15          C          -0.007740        4.0077     1.08911     2.91863
   16          C          -0.255248        4.2552     1.08030     3.17495
   17          C          -0.146443        4.1464     1.08298     3.06346
   18          C          -0.065113        4.0651     1.08707     2.97804
   19          C          -0.364505        4.3645     1.10881     3.25569
   20          C          -0.068453        4.0685     1.09030     2.97815
   21          C          -0.156706        4.1567     1.08262     3.07409
   22          O          -0.527824        6.5278     1.88604     4.64179
   23          O          -0.918585        6.9186     1.89916     5.01942
   24          O          -0.898735        6.8987     1.89961     4.99913
   25          O          -0.918329        6.9183     1.89834     5.01998
   26          O          -0.906389        6.9064     1.89883     5.00756
   27          S           0.160374        5.8396     1.89261     3.81892     0.12810
   28          S           2.327702        3.6723     1.17933     1.99056     0.50241
   29          S           2.326093        3.6739     1.18174     1.99036     0.50181
   30          H           0.343256        0.6567     0.65674
   31          H           0.350176        0.6498     0.64982
   32          H           0.322121        0.6779     0.67788
   33          H           0.293383        0.7066     0.70662
   34          H           0.298101        0.7019     0.70190
   35          H           0.292935        0.7071     0.70707
   36          H           0.293664        0.7063     0.70634
   37          H           0.184845        0.8152     0.81515
   38          H           0.185147        0.8149     0.81485
   39          H           0.168580        0.8314     0.83142
   40          H           0.167362        0.8326     0.83264
   41          H           0.163936        0.8361     0.83606
   42          H           0.162790        0.8372     0.83721
   43          H           0.177909        0.8221     0.82209
   44          H           0.163718        0.8363     0.83628
 DIPOLE           X         Y         Z       TOTAL
 POINT-CHG.    -5.633    -1.802    -6.944     9.121
 HYBRID         0.628    -0.173    -0.393     0.760
 SUM           -5.006    -1.975    -7.337     9.099


          ATOMIC ORBITAL ELECTRON POPULATIONS

     Atom    s        px        py        pz      x^2-y^2     xz        z^2       yz        xy
    1  N   1.77368   1.16555   1.24001   1.40860
    2  N   1.51977   1.12382   1.20083   1.62361
    3  N   1.50796   1.21606   1.17370   1.62046
    4  N   1.66624   1.26632   1.51163   1.48491
    5  N   1.66935   1.43546   1.40690   1.41937
    6  C   1.05519   1.04522   1.00736   1.48888
    7  C   1.05098   0.81389   0.83795   0.78233
    8  C   1.11012   0.83351   0.87627   0.83576
    9  C   1.06108   0.93421   0.81789   0.95385
   10  C   1.08155   0.85488   0.85326   0.69721
   11  C   1.08552   0.98282   0.99473   0.99747
   12  C   1.08109   1.10233   1.01992   1.03444
   13  C   1.09340   0.92976   0.98555   1.00303
   14  C   1.10744   1.10051   1.12345   1.08092
   15  C   1.08911   0.99778   0.95303   0.96782
   16  C   1.08030   1.04460   1.05412   1.07623
   17  C   1.08298   0.99259   0.99817   1.07271
   18  C   1.08707   0.97851   0.99974   0.99979
   19  C   1.10881   1.10789   1.10741   1.04039
   20  C   1.09030   0.94105   0.97660   1.06050
   21  C   1.08262   1.03623   1.01903   1.01883
   22  O   1.88604   1.62965   1.49902   1.51311
   23  O   1.89916   1.69151   1.71850   1.60941
   24  O   1.89961   1.37386   1.82315   1.80212
   25  O   1.89834   1.76507   1.81453   1.44038
   26  O   1.89883   1.35795   1.83770   1.81191
   27  S   1.89261   0.86755   1.13419   1.81718   0.00884   0.03376   0.01886   0.01041   0.05623
   28  S   1.17933   0.65421   0.70514   0.63120   0.11084   0.09766   0.09364   0.08186   0.11841
   29  S   1.18174   0.64511   0.71050   0.63475   0.10416   0.12158   0.09933   0.08653   0.09021
   30  H   0.65674
   31  H   0.64982
   32  H   0.67788
   33  H   0.70662
   34  H   0.70190
   35  H   0.70707
   36  H   0.70634
   37  H   0.81515
   38  H   0.81485
   39  H   0.83142
   40  H   0.83264
   41  H   0.83606
   42  H   0.83721
   43  H   0.82209
   44  H   0.83628

 **********************
 *                    *
 * JOB ENDED NORMALLY *
 *                    *
 **********************



 TOTAL JOB TIME:             1.05 SECONDS

 == MOPAC DONE ==
