 *******************************************************************************
 **                                                                           **
 **                              MOPAC v23.2.2                                **
 **                                                                           **
 *******************************************************************************
 **          Digital Object Identifier (DOI): 10.5281/zenodo.6511958          **
 **    Visit the DOI location for information on how to cite this program.    **
 *******************************************************************************

                              PM7 CALCULATION RESULTS

 *******************************************************************************
 *  CALCULATION DONE: (MAX THREADS = 12)             Tue Jan 27 15:53:14 2026  *
 *  PM7        - The PM7 Hamiltonian to be used
 *
 *
 *
 *                 CHARGE ON SYSTEM = +2
 *
 *
 *
 *  EPS=1      - USE ANDREAS KLAMT'S COSMO IMPLICIT SOLVATION MODEL
 *  1SCF       - DO 1 SCF AND THEN STOP 
 *  T=         - A TIME OF 172800.0 SECONDS REQUESTED
 *  DUMP=N     - RESTART FILE WRITTEN EVERY 7200.0 SECONDS REQUESTED
 *******************************************************************************
PM7 1SCF CHARGE=2 EPS=1


   ATOM   CHEMICAL          X               Y               Z
  NUMBER   SYMBOL      (ANGSTROMS)     (ANGSTROMS)     (ANGSTROMS)

     1       H         71.69100000  *  165.23700000  * -45.36000000  *
     2       C         70.72700000  *  165.64400000  * -45.02500000  *
     3       O         70.67100000  *  166.69300000  * -44.40000000  *
     4       N         69.64800000  *  164.94600000  * -45.35400000  *
     5       H         69.74300000  *  164.08600000  * -45.86500000  *
     6       C         68.31800000  *  165.37700000  * -44.95100000  *
     7       H         68.30400000  *  166.44500000  * -44.75000000  *
     8       C         67.27900000  *  165.08100000  * -46.05800000  *
     9       H         67.27200000  *  164.02200000  * -46.29800000  *
    10       C         65.89200000  *  165.46600000  * -45.59200000  *
    11       H         65.46400000  *  166.22900000  * -46.24500000  *
    12       H         65.23700000  *  164.60600000  * -45.62700000  *
    13       H         65.87600000  *  165.89500000  * -44.58400000  *
    14       C         67.63700000  *  165.85600000  * -47.31700000  *
    15       H         68.59400000  *  165.52900000  * -47.70800000  *
    16       H         66.87900000  *  165.66900000  * -48.07700000  *
    17       H         67.68800000  *  166.92100000  * -47.10100000  *
    18       C         67.91500000  *  164.66400000  * -43.65700000  *
    19       O         67.55300000  *  165.30600000  * -42.67600000  *
    20       N         67.98400000  *  163.33800000  * -43.65800000  *
    21       H         68.28400000  *  162.85200000  * -44.48600000  *
    22       C         67.62300000  *  162.54400000  * -42.48700000  *
    23       H         67.90600000  *  163.07600000  * -41.58100000  *
    24       C         66.12800000  *  162.23500000  * -42.45900000  *
    25       H         65.92600000  *  161.47400000  * -43.20900000  *
    26       H         65.88500000  *  161.80700000  * -41.48800000  *
    27       C         65.21300000  *  163.39800000  * -42.74000000  *
    28       H         65.33100000  *  164.15700000  * -41.96400000  *
    29       H         65.45900000  *  163.81400000  * -43.69700000  *
    30       C         63.76600000  *  162.97200000  * -42.82400000  *
    31       O         63.44700000  *  162.11400000  * -43.67900000  *
    32       O         62.94800000  *  163.49400000  * -42.03400000  *
    33       C         68.34700000  *  161.22200000  * -42.57700000  *
    34       O         68.73000000  *  160.78800000  * -43.66100000  *
    35       N         68.52400000  *  160.57500000  * -41.43500000  *
    36       H         68.03000000  *  160.89100000  * -40.60600000  *
    37       C         69.17300000  *  159.28200000  * -41.42100000  *
    38       H         69.95100000  *  159.22100000  * -42.17800000  *
    39       C         69.75600000  *  159.01000000  * -40.03200000  *
    40       H         70.21900000  *  159.94300000  * -39.71800000  *
    41       H         68.96300000  *  158.79100000  * -39.31600000  *
    42       C         70.79800000  *  157.89600000  * -39.98300000  *
    43       H         70.31100000  *  156.94100000  * -40.17400000  *
    44       H         71.53800000  *  158.07300000  * -40.76900000  *
    45       C         71.50100000  *  157.83200000  * -38.61800000  *
    46       H         70.74900000  *  157.59000000  * -37.86000000  *
    47       H         72.23100000  *  157.01800000  * -38.63800000  *
    48       C         72.18600000  *  159.16200000  * -38.26900000  *
    49       H         72.83200000  *  159.42500000  * -39.10900000  *
    50       H         71.41200000  *  159.93100000  * -38.15600000  *
    51       N         73.00000000  *  159.10500000  * -37.02500000  *
    52       H         73.70000000  *  158.37000000  * -37.07400000  *
    53       H         73.43800000  *  159.98800000  * -36.79300000  *
    54       H         72.39100000  *  158.85400000  * -36.25100000  *
    55       C         68.06200000  *  158.28700000  * -41.74800000  *
    56       O         67.16300000  *  158.08100000  * -40.94600000  *
    57       N         68.06600000  *  157.74200000  * -42.96700000  *
    58       H         68.86500000  *  157.93400000  * -43.55000000  *
    59       C         67.13900000  *  156.68000000  * -43.40200000  *
    60       H         66.12500000  *  157.08300000  * -43.42100000  *
    61       C         67.50500000  *  156.19700000  * -44.82500000  *
    62       H         68.58400000  *  156.24800000  * -44.94100000  *
    63       C         67.09300000  *  154.74600000  * -45.11100000  *
    64       H         66.01500000  *  154.62300000  * -45.01000000  *
    65       H         67.41100000  *  154.47600000  * -46.11300000  *
    66       H         67.59500000  *  154.05400000  * -44.43800000  *
    67       C         66.87300000  *  157.16500000  * -45.84100000  *
    68       H         65.78800000  *  157.06300000  * -45.82400000  *
    69       H         67.10800000  *  158.17500000  * -45.52100000  *
    70       C         67.37200000  *  156.99100000  * -47.28100000  *
    71       H         67.04500000  *  156.04000000  * -47.69000000  *
    72       H         66.97400000  *  157.79100000  * -47.90200000  *
    73       H         68.45800000  *  157.03300000  * -47.30900000  *
    74       C         67.13200000  *  155.54000000  * -42.38400000  *
    75       O         66.06900000  *  155.07100000  * -41.97500000  *
    76       N         68.32600000  *  155.12400000  * -41.96200000  *
    77       H         69.16100000  *  155.54500000  * -42.35600000  *
    78       C         68.49400000  *  154.14400000  * -40.90700000  *
    79       H         68.45800000  *  154.64900000  * -39.94100000  *
    80       H         67.67900000  *  153.41900000  * -40.94500000  *
    81       C         69.81400000  *  153.39800000  * -41.00000000  *
    82       O         70.84400000  *  153.92300000  * -41.42700000  *
    83       N         69.76600000  *  152.16200000  * -40.52800000  *
    84       H         68.85900000  *  151.79400000  * -40.27700000  *
    85       C         70.91800000  *  151.45600000  * -39.99200000  *
    86       H         71.81600000  *  152.06600000  * -40.09600000  *
    87       C         70.66900000  *  151.22700000  * -38.49100000  *
    88       H         69.84800000  *  150.52200000  * -38.35700000  *
    89       H         71.57800000  *  150.80300000  * -38.08900000  *
    90       C         70.35200000  *  152.51900000  * -37.71200000  *
    91       H         71.15800000  *  153.23900000  * -37.87400000  *
    92       H         69.43500000  *  152.96800000  * -38.09900000  *
    93       C         70.16000000  *  152.27200000  * -36.20800000  *
    94       O         69.20000000  *  151.56600000  * -35.82200000  *
    95       O         70.91700000  *  152.85700000  * -35.39900000  *
    96       C         71.12000000  *  150.15800000  * -40.78400000  *
    97       O         70.39900000  *  149.17500000  * -40.59600000  *
    98       N         72.03000000  *  150.19800000  * -41.75900000  *
    99       H         72.65500000  *  150.99400000  * -41.81700000  *
   100       C         72.15300000  *  149.17000000  * -42.79400000  *
   101       H         71.15800000  *  148.82500000  * -43.07900000  *
   102       H         72.61200000  *  149.62300000  * -43.67100000  *
   103       C         72.98600000  *  147.94900000  * -42.39400000  *
   104       O         73.49700000  *  147.83400000  * -41.28100000  *
   105       N         73.18300000  *  147.05300000  * -43.36100000  *
   106       H         72.72100000  *  147.19600000  * -44.25000000  *
   107       C         74.04000000  *  145.85300000  * -43.26500000  *
   108       H         73.76000000  *  145.28300000  * -42.37900000  *
   109       C         73.82800000  *  144.95900000  * -44.50000000  *
   110       H         74.59900000  *  144.18800000  * -44.54100000  *
   111       C         72.46500000  *  144.27800000  * -44.47000000  *
   112       H         71.66500000  *  145.01700000  * -44.51500000  *
   113       H         72.38500000  *  143.60300000  * -45.32200000  *
   114       H         72.38000000  *  143.68900000  * -43.55700000  *
   115       O         73.90000000  *  145.75800000  * -45.65600000  *
   116       H         73.34800000  *  145.34900000  * -46.36000000  *
   117       C         75.53800000  *  146.15700000  * -43.14900000  *
   118       O         76.26300000  *  145.33600000  * -42.59400000  *
   119       N         75.98800000  *  147.32700000  * -43.62900000  *
   120       H         75.31800000  *  147.88500000  * -44.13100000  *
   121       C         77.40800000  *  147.71500000  * -43.72400000  *
   122       H         78.00800000  *  147.06000000  * -43.08900000  *
   123       C         77.88100000  *  147.53200000  * -45.17800000  *
   124       H         77.29300000  *  148.18700000  * -45.82200000  *
   125       H         78.92300000  *  147.83800000  * -45.25900000  *
   126       C         77.80200000  *  146.11900000  * -45.69900000  *
   127       C         78.69800000  *  145.15600000  * -45.20700000  *
   128       H         79.45100000  *  145.43300000  * -44.47900000  *
   129       C         78.60100000  *  143.82600000  * -45.64300000  *
   130       H         79.28500000  *  143.09100000  * -45.24900000  *
   131       C         77.60500000  *  143.46100000  * -46.57400000  *
   132       O         77.47100000  *  142.16800000  * -46.95000000  *
   133       H         77.88800000  *  141.59300000  * -46.28100000  *
   134       C         76.72600000  *  144.43500000  * -47.08800000  *
   135       H         75.95300000  *  144.15300000  * -47.78500000  *
   136       C         76.83400000  *  145.76700000  * -46.65700000  *
   137       H         76.14600000  *  146.51000000  * -47.03500000  *
   138       C         77.72900000  *  149.15700000  * -43.29000000  *
   139       O         78.87800000  *  149.57300000  * -43.41900000  *
   140       N         76.76400000  *  149.94300000  * -42.80400000  *
   141       H         75.84500000  *  149.56300000  * -42.63500000  *
   142       C         76.97800000  *  151.36000000  * -42.48000000  *
   143       H         77.52400000  *  151.43900000  * -41.54300000  *
   144       H         77.59200000  *  151.80800000  * -43.25200000  *
   145       C         75.68100000  *  152.16000000  * -42.35000000  *
   146       O         74.61200000  *  151.57000000  * -42.16200000  *
   147       N         75.75500000  *  153.49500000  * -42.44900000  *
   148       H         76.58800000  *  153.89400000  * -42.85900000  *
   149       C         74.59200000  *  154.32600000  * -42.21200000  *
   150       H         73.82600000  *  153.78000000  * -41.65800000  *
   151       C         74.95900000  *  155.54800000  * -41.37000000  *
   152       H         75.70700000  *  156.13900000  * -41.89300000  *
   153       C         73.73100000  *  156.40900000  * -41.13300000  *
   154       H         72.94300000  *  155.80300000  * -40.68200000  *
   155       H         73.98600000  *  157.21200000  * -40.45000000  *
   156       H         73.36800000  *  156.84900000  * -42.06500000  *
   157       C         75.54500000  *  155.09600000  * -40.05300000  *
   158       H         76.46000000  *  154.52800000  * -40.19800000  *
   159       H         75.77700000  *  155.95300000  * -39.42300000  *
   160       H         74.80500000  *  154.48400000  * -39.53200000  *
   161       C         74.01900000  *  154.79200000  * -43.53700000  *
   162       O         74.76100000  *  155.18400000  * -44.43700000  *
   163       N         72.70100000  *  154.66000000  * -43.67200000  *
   164       H         72.16200000  *  154.34500000  * -42.86900000  *
   165       C         71.95500000  *  155.12600000  * -44.83800000  *
   166       H         72.64200000  *  155.21700000  * -45.67500000  *
   167       C         70.84000000  *  154.15000000  * -45.25600000  *
   168       H         69.98400000  *  154.26900000  * -44.59200000  *
   169       C         70.40900000  *  154.47400000  * -46.69200000  *
   170       H         71.24400000  *  154.34200000  * -47.37900000  *
   171       H         69.59700000  *  153.81500000  * -46.99200000  *
   172       H         70.06000000  *  155.50100000  * -46.76200000  *
   173       C         71.28700000  *  152.68700000  * -45.17900000  *
   174       H         72.25500000  *  152.58100000  * -45.66000000  *
   175       H         71.36600000  *  152.37900000  * -44.13600000  *
   176       H         70.55600000  *  152.04600000  * -45.67200000  *
   177       C         71.37300000  *  156.49600000  * -44.52600000  *
   178       O         70.66200000  *  156.64300000  * -43.52700000  *
   179       N         71.62500000  *  157.49000000  * -45.37400000  *
   180       H         72.23900000  *  157.32200000  * -46.16900000  *
   181       C         71.01800000  *  158.79600000  * -45.21900000  *
   182       H         70.37900000  *  158.84300000  * -44.33800000  *
   183       C         72.10000000  *  159.86100000  * -45.06900000  *
   184       H         72.79900000  *  159.78100000  * -45.90500000  *
   185       H         71.63400000  *  160.84400000  * -45.14300000  *
   186       C         72.87100000  *  159.84300000  * -43.76800000  *
   187       C         72.34700000  *  160.43100000  * -42.61900000  *
   188       H         71.37700000  *  160.90600000  * -42.66800000  *
   189       C         73.06400000  *  160.45200000  * -41.42500000  *
   190       H         72.63300000  *  160.94600000  * -40.56800000  *
   191       C         74.33000000  *  159.87400000  * -41.37100000  *
   192       O         75.04700000  *  159.90100000  * -40.18700000  *
   193       H         74.69700000  *  160.54100000  * -39.56800000  *
   194       C         74.87500000  *  159.27800000  * -42.50300000  *
   195       H         75.78500000  *  158.71900000  * -42.41900000  *
   196       C         74.14000000  *  159.26700000  * -43.69600000  *
   197       H         74.51800000  *  158.73300000  * -44.56500000  *
   198       C         70.16700000  *  159.17400000  * -46.42900000  *
   199       O         70.41800000  *  158.72400000  * -47.55600000  *
   200       N         69.02600000  *  159.82700000  * -46.21100000  *
   201       H         68.83700000  *  160.13300000  * -45.26300000  *
   202       C         68.29400000  *  160.50600000  * -47.28000000  *
   203       H         68.28200000  *  159.90300000  * -48.19000000  *
   204       C         66.85100000  *  160.83000000  * -46.84400000  *
   205       H         66.33200000  *  159.90500000  * -46.60500000  *
   206       H         66.87100000  *  161.45000000  * -45.94600000  *
   207       C         66.04900000  *  161.54800000  * -47.94200000  *
   208       H         66.53500000  *  162.48900000  * -48.20100000  *
   209       H         66.01600000  *  160.91600000  * -48.83000000  *
   210       C         64.61800000  *  161.84000000  * -47.46400000  *
   211       H         64.14800000  *  160.91200000  * -47.13400000  *
   212       H         64.65900000  *  162.52800000  * -46.61900000  *
   213       C         63.78400000  *  162.45700000  * -48.59600000  *
   214       H         64.31800000  *  163.32600000  * -48.99300000  *
   215       H         63.69500000  *  161.71800000  * -49.40100000  *
   216       N         62.43200000  *  162.86600000  * -48.12900000  *
   217       H         62.48800000  *  163.57100000  * -47.40800000  *
   218       H         61.88700000  *  163.25900000  * -48.88500000  *
   219       H         61.91400000  *  162.08400000  * -47.75300000  *
   220       C         69.10500000  *  161.76100000  * -47.50900000  *
   221       O         69.33700000  *  162.49400000  * -46.55000000  *
   222       N         69.55500000  *  162.00600000  * -48.72500000  *
   223       H         69.34400000  *  161.34200000  * -49.46700000  *
   224       C         70.34900000  *  163.18200000  * -49.01700000  *
   225       H         70.22500000  *  163.93500000  * -48.24000000  *
   226       C         71.81400000  *  162.79200000  * -49.07000000  *
   227       H         71.97800000  *  162.06700000  * -49.86400000  *
   228       H         72.42900000  *  163.67700000  * -49.23900000  *
   229       H         72.10500000  *  162.33200000  * -48.12600000  *
   230       C         69.94400000  *  163.83800000  * -50.32200000  *
   231       O         69.22100000  *  163.25100000  * -51.12800000  *
   232       N         70.40700000  *  165.06400000  * -50.52400000  *
   233       H         70.93200000  *  165.53000000  * -49.79600000  *
   234       C         70.10800000  *  165.77900000  * -51.74600000  *
   235       H         69.54100000  *  165.15900000  * -52.44400000  *
   236       H         69.52200000  *  166.69100000  * -51.53000000  *
   237       H         71.05900000  *  166.04700000  * -52.23900000  *
   238       H         68.08600000  *  164.80700000  * -56.55000000  *
   239       C         68.21200000  *  164.39600000  * -55.53600000  *
   240       O         69.28600000  *  164.50800000  * -54.94200000  *
   241       N         67.13500000  *  163.82300000  * -55.01100000  *
   242       H         66.34000000  *  163.66800000  * -55.61500000  *
   243       C         67.13600000  *  163.21200000  * -53.68800000  *
   244       H         67.86300000  *  163.70700000  * -53.05000000  *
   245       C         65.75500000  *  163.32300000  * -53.02900000  *
   246       H         64.97700000  *  163.06900000  * -53.75000000  *
   247       C         65.64800000  *  162.36600000  * -51.85200000  *
   248       H         66.47200000  *  162.51800000  * -51.15200000  *
   249       H         64.69700000  *  162.53800000  * -51.34700000  *
   250       H         65.65200000  *  161.33900000  * -52.20000000  *
   251       C         65.54000000  *  164.75000000  * -52.56600000  *
   252       H         65.62600000  *  165.42400000  * -53.41600000  *
   253       H         64.53500000  *  164.85100000  * -52.15900000  *
   254       H         66.28400000  *  165.00300000  * -51.81000000  *
   255       C         67.52600000  *  161.76000000  * -53.84700000  *
   256       O         66.97900000  *  161.02800000  * -54.68200000  *
   257       N         68.49600000  *  161.34900000  * -53.04800000  *
   258       H         68.91100000  *  161.99700000  * -52.39100000  *
   259       C         69.01100000  *  159.99200000  * -53.10200000  *
   260       H         68.34600000  *  159.34100000  * -53.67900000  *
   261       C         70.37400000  *  159.97400000  * -53.81600000  *
   262       H         70.77500000  *  158.96500000  * -53.87500000  *
   263       C         70.21400000  *  160.50700000  * -55.21300000  *
   264       H         69.95700000  *  161.56600000  * -55.19000000  *
   265       H         71.15100000  *  160.39100000  * -55.75600000  *
   266       H         69.44200000  *  159.95000000  * -55.73600000  *
   267       C         71.37900000  *  160.85000000  * -53.05700000  *
   268       H         71.56500000  *  160.44500000  * -52.06400000  *
   269       H         72.31500000  *  160.84900000  * -53.61300000  *
   270       H         71.03600000  *  161.88400000  * -52.98400000  *
   271       C         69.19200000  *  159.37200000  * -51.72900000  *
   272       O         69.02000000  *  160.03600000  * -50.68600000  *
   273       N         69.38800000  *  158.06000000  * -51.70800000  *
   274       H         69.46500000  *  157.56900000  * -52.59400000  *
   275       C         69.76000000  *  157.31900000  * -50.51800000  *
   276       H         69.47600000  *  157.87700000  * -49.62800000  *
   277       C         68.99900000  *  155.99900000  * -50.49500000  *
   278       H         69.21500000  *  155.43700000  * -51.40100000  *
   279       H         69.29500000  *  155.41500000  * -49.62300000  *
   280       H         67.93100000  *  156.20700000  * -50.44200000  *
   281       C         71.27800000  *  157.13900000  * -50.53900000  *
   282       O         71.81500000  *  156.46000000  * -51.42000000  *
   283       N         71.97000000  *  157.79100000  * -49.60300000  *
   284       H         71.44500000  *  158.28300000  * -48.88900000  *
   285       C         73.41300000  *  157.73400000  * -49.53500000  *
   286       H         73.80300000  *  157.43200000  * -50.50200000  *
   287       C         73.96100000  *  159.11400000  * -49.18200000  *
   288       H         73.49200000  *  159.84000000  * -49.85100000  *
   289       H         73.62800000  *  159.35800000  * -48.16900000  *
   290       C         75.47300000  *  159.31600000  * -49.26600000  *
   291       H         75.96900000  *  158.63700000  * -48.57100000  *
   292       C         75.94900000  *  159.02000000  * -50.68400000  *
   293       H         75.44100000  *  159.71800000  * -51.34800000  *
   294       H         77.02400000  *  159.18800000  * -50.76300000  *
   295       H         75.74700000  *  157.98700000  * -50.96800000  *
   296       C         75.80400000  *  160.74000000  * -48.87900000  *
   297       H         75.43700000  *  160.94600000  * -47.87600000  *
   298       H         76.88200000  *  160.87900000  * -48.92200000  *
   299       H         75.32000000  *  161.42900000  * -49.57600000  *
   300       C         73.82100000  *  156.71600000  * -48.48500000  *
   301       O         73.39600000  *  156.78100000  * -47.33400000  *
   302       N         74.63900000  *  155.74600000  * -48.88800000  *
   303       H         74.87600000  *  155.72700000  * -49.87700000  *
   304       C         75.13500000  *  154.63300000  * -48.06600000  *
   305       H         74.61400000  *  154.60400000  * -47.10800000  *
   306       C         74.87500000  *  153.32400000  * -48.84800000  *
   307       H         74.45000000  *  153.57100000  * -49.82200000  *
   308       H         75.81200000  *  152.79900000  * -49.03700000  *
   309       C         73.89600000  *  152.34200000  * -48.20400000  *
   310       H         73.03500000  *  152.88400000  * -47.81700000  *
   311       H         73.54500000  *  151.68200000  * -48.99700000  *
   312       C         74.54800000  *  151.49800000  * -47.09300000  *
   313       H         75.52600000  *  151.14100000  * -47.42200000  *
   314       H         74.70200000  *  152.12900000  * -46.21500000  *
   315       C         73.67900000  *  150.28700000  * -46.70500000  *
   316       H         74.12700000  *  149.81700000  * -45.82400000  *
   317       H         72.68300000  *  150.64300000  * -46.41700000  *
   318       N         73.56700000  *  149.29300000  * -47.81100000  *
   319       H         74.47200000  *  148.94100000  * -48.09900000  *
   320       H         72.99800000  *  148.48000000  * -47.53900000  *
   321       H         73.11100000  *  149.69300000  * -48.62200000  *
   322       C         76.62400000  *  154.85200000  * -47.79900000  *
   323       O         77.41800000  *  154.69300000  * -48.71800000  *
   324       N         77.01700000  *  155.22600000  * -46.58100000  *
   325       H         76.29800000  *  155.26800000  * -45.86500000  *
   326       C         78.42200000  *  155.28900000  * -46.15900000  *
   327       H         79.06600000  *  155.59300000  * -46.98900000  *
   328       C         78.56700000  *  156.26000000  * -44.97900000  *
   329       H         78.02700000  *  155.87500000  * -44.10900000  *
   330       H         79.62500000  *  156.33900000  * -44.73000000  *
   331       C         78.01500000  *  157.64300000  * -45.34000000  *
   332       H         78.45100000  *  157.95800000  * -46.27300000  *
   333       H         76.93600000  *  157.57500000  * -45.50000000  *
   334       C         78.25100000  *  158.72500000  * -44.27900000  *
   335       H         77.97800000  *  159.68000000  * -44.73200000  *
   336       H         77.56000000  *  158.53300000  * -43.46900000  *
   337       C         79.67700000  *  158.85000000  * -43.70900000  *
   338       H         80.38400000  *  158.36300000  * -44.39700000  *
   339       H         79.95000000  *  159.91100000  * -43.68600000  *
   340       N         79.78800000  *  158.26900000  * -42.33500000  *
   341       H         79.63700000  *  157.26100000  * -42.37000000  *
   342       H         80.69600000  *  158.42600000  * -41.93200000  *
   343       H         79.10400000  *  158.64600000  * -41.70100000  *
   344       C         78.82300000  *  153.89100000  * -45.72900000  *
   345       O         78.09100000  *  153.31500000  * -44.93700000  *
   346       N         79.90700000  *  153.32000000  * -46.24700000  *
   347       H         80.40500000  *  153.76400000  * -47.01000000  *
   348       C         80.34300000  *  152.02200000  * -45.76800000  *
   349       H         79.49500000  *  151.49800000  * -45.35900000  *
   350       C         80.94400000  *  151.18600000  * -46.89500000  *
   351       H         81.78600000  *  151.78200000  * -47.16900000  *
   352       C         81.42400000  *  149.85200000  * -46.34500000  *
   353       H         80.65600000  *  149.35200000  * -45.75200000  *
   354       H         81.67900000  *  149.19900000  * -47.17900000  *
   355       H         82.34500000  *  149.95700000  * -45.76100000  *
   356       C         79.89700000  *  150.97600000  * -47.99700000  *
   357       H         79.60200000  *  151.87000000  * -48.50000000  *
   358       H         80.28300000  *  150.30500000  * -48.75000000  *
   359       C         78.59100000  *  150.36100000  * -47.52600000  *
   360       H         78.17700000  *  150.90100000  * -46.69000000  *
   361       H         77.89400000  *  150.33700000  * -48.36300000  *
   362       H         78.77100000  *  149.33300000  * -47.20900000  *
   363       C         81.33300000  *  152.07100000  * -44.61400000  *
   364       O         82.16700000  *  152.98000000  * -44.51900000  *
   365       N         81.21100000  *  151.07100000  * -43.74300000  *
   366       H         80.50300000  *  150.36100000  * -43.92800000  *
   367       C         82.04400000  *  150.90200000  * -42.55200000  *
   368       H         81.47500000  *  151.18100000  * -41.66300000  *
   369       H         82.35800000  *  149.86100000  * -42.45900000  *
   370       H         82.94700000  *  151.51400000  * -42.62000000  *
   371       H         81.25700000  *  144.04600000  * -57.89900000  *
   372       C         80.50000000  *  144.84100000  * -57.88800000  *
   373       O         79.71500000  *  144.99000000  * -58.82400000  *
   374       N         80.49900000  *  145.60300000  * -56.79700000  *
   375       H         81.28000000  *  145.52500000  * -56.16600000  *
   376       C         79.57000000  *  146.70600000  * -56.61200000  *
   377       H         78.57500000  *  146.34400000  * -56.42300000  *
   378       C         80.00500000  *  147.61000000  * -55.44200000  *
   379       H         80.89800000  *  148.18000000  * -55.68500000  *
   380       C         78.90600000  *  148.60800000  * -55.12500000  *
   381       H         77.92000000  *  148.14100000  * -55.17600000  *
   382       H         79.04500000  *  148.98700000  * -54.11600000  *
   383       H         78.93800000  *  149.43600000  * -55.83300000  *
   384       C         80.32100000  *  146.76200000  * -54.20900000  *
   385       H         81.19200000  *  146.13400000  * -54.40600000  *
   386       H         80.59400000  *  147.42200000  * -53.38900000  *
   387       C         79.18400000  *  145.87900000  * -53.76500000  *
   388       H         78.77800000  *  145.31100000  * -54.59400000  *
   389       H         79.50900000  *  145.12200000  * -53.06500000  *
   390       H         78.38800000  *  146.48300000  * -53.33500000  *
   391       C         79.54300000  *  147.54500000  * -57.87900000  *
   392       O         78.48200000  *  147.77900000  * -58.45100000  *
   393       N         80.72300000  *  147.98900000  * -58.30900000  *
   394       H         81.55800000  *  147.70100000  * -57.81200000  *
   395       C         80.85900000  *  148.80400000  * -59.51100000  *
   396       H         80.33900000  *  149.74600000  * -59.38600000  *
   397       H         81.92800000  *  148.98500000  * -59.72900000  *
   398       H         80.37800000  *  148.32200000  * -60.38100000  *
   399       H         78.96400000  *  146.08700000  * -61.65600000  *
   400       C         77.87300000  *  146.08700000  * -61.51600000  *
   401       O         77.11500000  *  145.89500000  * -62.46400000  *
   402       N         77.44600000  *  146.31800000  * -60.28000000  *
   403       H         78.13400000  *  146.42500000  * -59.54900000  *
   404       C         76.02800000  *  146.35200000  * -59.94500000  *
   405       H         75.53300000  *  145.47600000  * -60.35900000  *
   406       C         75.84100000  *  146.37400000  * -58.43100000  *
   407       H         76.20500000  *  147.30400000  * -58.01800000  *
   408       H         74.76300000  *  146.35700000  * -58.24200000  *
   409       C         76.47200000  *  145.22200000  * -57.65900000  *
   410       H         77.55000000  *  145.23900000  * -57.74900000  *
   411       C         76.08000000  *  145.34100000  * -56.19200000  *
   412       H         74.99900000  *  145.23000000  * -56.07700000  *
   413       H         76.57300000  *  144.55300000  * -55.62900000  *
   414       H         76.38500000  *  146.30900000  * -55.80100000  *
   415       C         75.99600000  *  143.89000000  * -58.23600000  *
   416       H         76.41500000  *  143.73000000  * -59.22900000  *
   417       H         76.32800000  *  143.07800000  * -57.59100000  *
   418       H         74.90500000  *  143.87400000  * -58.30500000  *
   419       C         75.32200000  *  147.55900000  * -60.54800000  *
   420       O         74.09500000  *  147.56800000  * -60.66200000  *
   421       N         76.08400000  *  148.63100000  * -60.82900000  *
   422       H         77.08200000  *  148.53500000  * -60.67700000  *
   423       C         75.60100000  *  149.83300000  * -61.53400000  *
   424       H         74.83700000  *  150.33500000  * -60.94100000  *
   425       H         76.43800000  *  150.53300000  * -61.75900000  *
   426       H         75.13800000  *  149.54900000  * -62.49200000  *
   427       H         62.79000000  *  145.77200000  * -59.27600000  *
   428       C         63.71000000  *  145.72000000  * -58.67500000  *
   429       O         63.77900000  *  145.02200000  * -57.66400000  *
   430       N         64.72400000  *  146.45200000  * -59.11400000  *
   431       H         64.63800000  *  147.05100000  * -59.92700000  *
   432       C         65.97100000  *  146.53500000  * -58.38100000  *
   433       H         65.88400000  *  146.09200000  * -57.38600000  *
   434       C         67.11600000  *  145.87700000  * -59.11400000  *
   435       H         67.33600000  *  146.42600000  * -60.03000000  *
   436       C         68.35100000  *  145.87800000  * -58.21400000  *
   437       H         68.14700000  *  145.31400000  * -57.31800000  *
   438       H         69.21000000  *  145.44500000  * -58.72400000  *
   439       H         68.64100000  *  146.89000000  * -57.94500000  *
   440       C         66.72800000  *  144.44400000  * -59.47800000  *
   441       H         66.54900000  *  143.87300000  * -58.56400000  *
   442       H         65.81500000  *  144.42400000  * -60.06800000  *
   443       C         67.77400000  *  143.72700000  * -60.29600000  *
   444       H         68.68300000  *  143.57700000  * -59.72200000  *
   445       H         67.37700000  *  142.75300000  * -60.59800000  *
   446       H         68.02300000  *  144.31300000  * -61.18000000  *
   447       C         66.29500000  *  148.01000000  * -58.22000000  *
   448       O         66.21200000  *  148.78000000  * -59.18400000  *
   449       N         66.55800000  *  148.43600000  * -56.98200000  *
   450       H         66.62500000  *  147.75100000  * -56.23300000  *
   451       C         66.89700000  *  149.83100000  * -56.67500000  *
   452       H         66.07900000  *  150.47400000  * -56.99700000  *
   453       C         67.09700000  *  150.02600000  * -55.16400000  *
   454       H         67.88400000  *  149.35600000  * -54.81400000  *
   455       C         67.47900000  *  151.46200000  * -54.79400000  *
   456       H         66.65300000  *  152.13800000  * -55.00900000  *
   457       H         67.70900000  *  151.51100000  * -53.73100000  *
   458       H         68.35600000  *  151.78500000  * -55.35100000  *
   459       C         65.80300000  *  149.70700000  * -54.41400000  *
   460       H         65.53300000  *  148.66100000  * -54.52800000  *
   461       H         65.95600000  *  149.90200000  * -53.36000000  *
   462       H         64.99200000  *  150.32800000  * -54.78700000  *
   463       C         68.15500000  *  150.21800000  * -57.44800000  *
   464       O         69.18600000  *  149.55200000  * -57.32400000  *
   465       N         68.08000000  *  151.28300000  * -58.25100000  *
   466       H         67.22500000  *  151.80400000  * -58.24500000  *
   467       C         69.18900000  *  151.69800000  * -59.08000000  *
   468       H         69.52500000  *  150.81900000  * -59.63900000  *
   469       C         68.73700000  *  152.76800000  * -60.08300000  *
   470       H         67.83400000  *  152.41100000  * -60.57900000  *
   471       H         68.47700000  *  153.68100000  * -59.53700000  *
   472       C         69.79100000  *  153.06900000  * -61.13100000  *
   473       H         70.72100000  *  153.35000000  * -60.64200000  *
   474       H         69.97400000  *  152.16800000  * -61.71600000  *
   475       C         69.35100000  *  154.17900000  * -62.08100000  *
   476       H         68.50200000  *  153.81400000  * -62.66100000  *
   477       H         69.02300000  *  155.05600000  * -61.52200000  *
   478       C         70.49800000  *  154.55900000  * -63.02400000  *
   479       H         71.33900000  *  154.89000000  * -62.40800000  *
   480       H         70.81900000  *  153.66100000  * -63.56600000  *
   481       N         70.11800000  *  155.62600000  * -63.99700000  *
   482       H         69.74700000  *  156.41600000  * -63.48300000  *
   483       H         70.92600000  *  155.93300000  * -64.52500000  *
   484       H         69.41500000  *  155.27800000  * -64.63600000  *
   485       C         70.36000000  *  152.21400000  * -58.25300000  *
   486       O         70.19400000  *  153.07400000  * -57.38700000  *
   487       N         71.53700000  *  151.64500000  * -58.50700000  *
   488       H         71.59600000  *  150.90400000  * -59.18600000  *
   489       C         72.75000000  *  152.07400000  * -57.83600000  *
   490       H         72.53800000  *  152.52600000  * -56.87100000  *
   491       C         73.72700000  *  150.91100000  * -57.67000000  *
   492       H         73.31500000  *  150.22100000  * -56.93700000  *
   493       H         73.77900000  *  150.36900000  * -58.62000000  *
   494       C         75.16700000  *  151.27300000  * -57.28800000  *
   495       H         75.65500000  *  151.80300000  * -58.10000000  *
   496       C         75.18300000  *  152.16500000  * -56.05900000  *
   497       H         74.60800000  *  151.72100000  * -55.25200000  *
   498       H         76.21000000  *  152.29600000  * -55.73500000  *
   499       H         74.78900000  *  153.14000000  * -56.31200000  *
   500       C         75.93300000  *  149.99400000  * -57.01300000  *
   501       H         75.98300000  *  149.42100000  * -57.93300000  *
   502       H         76.94600000  *  150.24200000  * -56.71200000  *
   503       H         75.43500000  *  149.41000000  * -56.23200000  *
   504       C         73.31900000  *  153.11300000  * -58.79500000  *
   505       O         73.76900000  *  152.77900000  * -59.89700000  *
   506       N         73.26700000  *  154.36900000  * -58.37800000  *
   507       H         72.92600000  *  154.57000000  * -57.44900000  *
   508       C         73.73400000  *  155.46600000  * -59.19700000  *
   509       H         73.47500000  *  155.26500000  * -60.23600000  *
   510       C         73.02500000  *  156.74200000  * -58.76000000  *
   511       H         73.45000000  *  157.06300000  * -57.80900000  *
   512       H         73.23600000  *  157.53300000  * -59.48700000  *
   513       C         71.51300000  *  156.60300000  * -58.58700000  *
   514       H         71.27400000  *  155.80900000  * -57.88500000  *
   515       C         70.97400000  *  157.88000000  * -58.01900000  *
   516       H         71.37000000  *  158.74600000  * -58.56000000  *
   517       H         69.88800000  *  157.89100000  * -58.09300000  *
   518       H         71.22100000  *  157.96000000  * -56.96600000  *
   519       C         70.85100000  *  156.29000000  * -59.92300000  *
   520       H         71.28300000  *  155.39700000  * -60.34200000  *
   521       H         69.78900000  *  156.14400000  * -59.75100000  *
   522       H         71.00300000  *  157.12700000  * -60.60700000  *
   523       C         75.24500000  *  155.67800000  * -59.15800000  *
   524       O         75.83900000  *  156.04700000  * -60.17600000  *
   525       N         75.86200000  *  155.44600000  * -57.99600000  *
   526       H         75.29500000  *  155.17900000  * -57.20400000  *
   527       C         77.30800000  *  155.64700000  * -57.82900000  *
   528       H         77.80800000  *  155.40400000  * -58.76600000  *
   529       C         77.60000000  *  157.11700000  * -57.51900000  *
   530       H         76.91700000  *  157.54400000  * -56.80300000  *
   531       H         78.58200000  *  157.17000000  * -57.04800000  *
   532       C         77.65600000  *  157.97500000  * -58.75600000  *
   533       O         78.67800000  *  157.91700000  * -59.48300000  *
   534       O         76.67400000  *  158.70400000  * -59.00000000  *
   535       C         77.97900000  *  154.81700000  * -56.73400000  *
   536       O         77.37100000  *  154.52100000  * -55.70400000  *
   537       N         79.24700000  *  154.47700000  * -56.96600000  *
   538       H         79.69800000  *  154.82400000  * -57.79800000  *
   539       C         80.06100000  *  153.73800000  * -56.00300000  *
   540       H         79.55400000  *  153.69900000  * -55.05200000  *
   541       C         80.36600000  *  152.29800000  * -56.50400000  *
   542       H         79.42700000  *  151.75200000  * -56.56200000  *
   543       C         80.98100000  *  152.34300000  * -57.88400000  *
   544       H         82.06600000  *  152.43300000  * -57.82100000  *
   545       H         80.74600000  *  151.41400000  * -58.37900000  *
   546       H         80.59600000  *  153.14500000  * -58.51000000  *
   547       C         81.29900000  *  151.58800000  * -55.53900000  *
   548       H         80.81100000  *  151.54900000  * -54.57200000  *
   549       H         81.47300000  *  150.57200000  * -55.87800000  *
   550       H         82.25900000  *  152.09200000  * -55.44900000  *
   551       C         81.36500000  *  154.53600000  * -55.81000000  *
   552       O         82.27000000  *  154.48900000  * -56.64700000  *
   553       N         81.45200000  *  155.28200000  * -54.71000000  *
   554       H         80.67600000  *  155.30400000  * -54.06400000  *
   555       C         82.62100000  *  156.11100000  * -54.44300000  *
   556       H         83.20500000  *  156.21800000  * -55.35800000  *
   557       H         82.32200000  *  157.12800000  * -54.14500000  *
   558       H         83.29700000  *  155.73900000  * -53.65600000  *
   559       H         84.58000000  *  155.17100000  * -47.07300000  *
   560       C         84.22500000  *  154.98400000  * -48.09100000  *
   561       O         84.63900000  *  155.65900000  * -49.04200000  *
   562       N         83.35800000  *  153.99100000  * -48.22200000  *
   563       H         83.13600000  *  153.42800000  * -47.41700000  *
   564       C         82.77600000  *  153.65100000  * -49.50600000  *
   565       H         83.37000000  *  154.04700000  * -50.31700000  *
   566       C         82.71900000  *  152.14000000  * -49.66000000  *
   567       H         83.74000000  *  151.87500000  * -49.95700000  *
   568       H         82.64400000  *  151.54600000  * -48.78400000  *
   569       C         81.82600000  *  151.61900000  * -50.77900000  *
   570       H         80.79100000  *  151.88400000  * -50.58700000  *
   571       C         82.25800000  *  152.23100000  * -52.09200000  *
   572       H         83.31100000  *  152.49100000  * -52.08900000  *
   573       H         82.09300000  *  151.51300000  * -52.88400000  *
   574       H         81.65400000  *  153.10900000  * -52.31200000  *
   575       C         81.89900000  *  150.09400000  * -50.82200000  *
   576       H         81.91300000  *  149.66400000  * -49.82700000  *
   577       H         81.05200000  *  149.70600000  * -51.39100000  *
   578       H         82.82500000  *  149.80300000  * -51.32100000  *
   579       C         81.36700000  *  154.23200000  * -49.54800000  *
   580       O         80.51800000  *  153.85700000  * -48.74500000  *
   581       N         81.13100000  *  155.16100000  * -50.46700000  *
   582       H         81.84500000  *  155.34800000  * -51.16200000  *
   583       C         79.82200000  *  155.78100000  * -50.60800000  *
   584       H         79.27400000  *  155.67000000  * -49.68700000  *
   585       C         79.96700000  *  157.27800000  * -50.86800000  *
   586       H         80.42300000  *  157.50400000  * -51.79700000  *
   587       H         78.95400000  *  157.66400000  * -50.98900000  *
   588       C         80.57600000  *  158.04300000  * -49.72300000  *
   589       C         79.79300000  *  158.48000000  * -48.65600000  *
   590       H         78.73500000  *  158.25400000  * -48.66900000  *
   591       C         80.35600000  *  159.18600000  * -47.59400000  *
   592       H         79.75300000  *  159.56200000  * -46.79700000  *
   593       C         81.71600000  *  159.45200000  * -47.58700000  *
   594       O         82.27600000  *  160.12500000  * -46.52100000  *
   595       H         83.20600000  *  160.30800000  * -46.74500000  *
   596       C         82.51400000  *  159.02600000  * -48.63700000  *
   597       H         83.58200000  *  159.23300000  * -48.65000000  *
   598       C         81.94100000  *  158.32800000  * -49.69800000  *
   599       H         82.57400000  *  157.98100000  * -50.50200000  *
   600       C         79.04800000  *  155.15800000  * -51.76500000  *
   601       O         79.54400000  *  155.08000000  * -52.88800000  *
   602       N         77.86200000  *  154.62400000  * -51.49600000  *
   603       H         77.53400000  *  154.65000000  * -50.53600000  *
   604       C         76.98200000  *  154.05300000  * -52.51300000  *
   605       H         77.50600000  *  154.00000000  * -53.46100000  *
   606       C         76.55200000  *  152.62000000  * -52.15200000  *
   607       H         75.86900000  *  152.66300000  * -51.31300000  *
   608       H         76.00300000  *  152.21400000  * -53.00200000  *
   609       C         77.69100000  *  151.65200000  * -51.79100000  *
   610       H         78.20600000  *  152.00300000  * -50.89700000  *
   611       C         77.12300000  *  150.26300000  * -51.50600000  *
   612       H         76.62200000  *  149.87100000  * -52.39300000  *
   613       H         77.92900000  *  149.58500000  * -51.22200000  *
   614       H         76.41100000  *  150.31800000  * -50.68400000  *
   615       C         78.69400000  *  151.52800000  * -52.93100000  *
   616       H         79.21100000  *  152.47500000  * -53.06500000  *
   617       H         79.43200000  *  150.76800000  * -52.68500000  *
   618       H         78.17900000  *  151.26100000  * -53.85400000  *
   619       C         75.78500000  *  154.98300000  * -52.67300000  *
   620       O         75.10100000  *  155.26000000  * -51.68500000  *
   621       N         75.54700000  *  155.50800000  * -53.87800000  *
   622       H         76.14500000  *  155.25500000  * -54.66000000  *
   623       C         74.40900000  *  156.37500000  * -54.09400000  *
   624       H         73.97600000  *  156.70200000  * -53.15000000  *
   625       C         74.83400000  *  157.63700000  * -54.81800000  *
   626       H         75.25500000  *  157.34500000  * -55.76600000  *
   627       C         73.61400000  *  158.52200000  * -55.10900000  *
   628       H         73.11700000  *  158.76900000  * -54.17500000  *
   629       H         73.94100000  *  159.43100000  * -55.61500000  *
   630       H         72.91600000  *  158.00900000  * -55.76200000  *
   631       C         75.84000000  *  158.38200000  * -53.94900000  *
   632       H         75.28100000  *  158.78400000  * -53.13000000  *
   633       H         76.65600000  *  157.75800000  * -53.60500000  *
   634       H         76.26100000  *  159.20400000  * -54.52500000  *
   635       C         73.31400000  *  155.64400000  * -54.85300000  *
   636       O         73.49500000  *  155.22100000  * -55.99400000  *
   637       N         72.20700000  *  155.38800000  * -54.16100000  *
   638       H         72.14000000  *  155.74400000  * -53.21100000  *
   639       C         71.02800000  *  154.71500000  * -54.69700000  *
   640       H         71.27700000  *  154.24700000  * -55.64500000  *
   641       C         70.57100000  *  153.62500000  * -53.72200000  *
   642       H         70.43600000  *  154.06800000  * -52.73600000  *
   643       H         69.59600000  *  153.26400000  * -54.04400000  *
   644       C         71.50300000  *  152.43300000  * -53.60100000  *
   645       C         71.36700000  *  151.34000000  * -54.47900000  *
   646       H         70.62800000  *  151.36400000  * -55.26600000  *
   647       C         72.18400000  *  150.20500000  * -54.33000000  *
   648       H         72.06800000  *  149.36300000  * -55.00000000  *
   649       C         73.14800000  *  150.16200000  * -53.30900000  *
   650       H         73.77700000  *  149.28900000  * -53.19500000  *
   651       C         73.29200000  *  151.25500000  * -52.43600000  *
   652       H         74.02600000  *  151.21500000  * -51.64600000  *
   653       C         72.47500000  *  152.39200000  * -52.58300000  *
   654       H         72.58700000  *  153.22800000  * -51.90600000  *
   655       C         69.89500000  *  155.71700000  * -54.93700000  *
   656       O         69.78000000  *  156.71700000  * -54.22600000  *
   657       N         69.03200000  *  155.45300000  * -55.92000000  *
   658       H         69.17600000  *  154.61500000  * -56.47500000  *
   659       C         67.74700000  *  156.16300000  * -56.02200000  *
   660       H         67.96500000  *  157.21300000  * -56.22300000  *
   661       C         66.91100000  *  155.63400000  * -57.20300000  *
   662       H         66.03900000  *  156.28000000  * -57.30600000  *
   663       H         67.49900000  *  155.70200000  * -58.11900000  *
   664       C         66.44500000  *  154.18500000  * -57.01000000  *
   665       H         67.32600000  *  153.54200000  * -56.98100000  *
   666       H         65.93600000  *  154.09800000  * -56.05400000  *
   667       C         65.47000000  *  153.68100000  * -58.07900000  *
   668       O         64.63900000  *  154.45500000  * -58.60600000  *
   669       O         65.48900000  *  152.46300000  * -58.35500000  *
   670       C         66.96600000  *  156.09600000  * -54.69000000  *
   671       O         67.00100000  *  155.08500000  * -53.98300000  *
   672       N         66.26300000  *  157.17000000  * -54.33000000  *
   673       H         66.23900000  *  157.97300000  * -54.94200000  *
   674       C         65.39500000  *  157.18700000  * -53.15000000  *
   675       H         65.84900000  *  156.58400000  * -52.36200000  *
   676       C         65.29400000  *  158.62500000  * -52.63100000  *
   677       H         66.29700000  *  158.97800000  * -52.39200000  *
   678       H         64.89700000  *  159.26200000  * -53.42200000  *
   679       C         64.43100000  *  158.78300000  * -51.39400000  *
   680       C         63.10200000  *  159.23200000  * -51.50600000  *
   681       H         62.68900000  *  159.47500000  * -52.47600000  *
   682       C         62.30300000  *  159.36200000  * -50.35600000  *
   683       H         61.28300000  *  159.70600000  * -50.44600000  *
   684       C         62.82900000  *  159.04300000  * -49.09300000  *
   685       H         62.21100000  *  159.13200000  * -48.20900000  *
   686       C         64.16100000  *  158.60800000  * -48.97900000  *
   687       H         64.56700000  *  158.36500000  * -48.00700000  *
   688       C         64.96000000  *  158.47400000  * -50.12800000  *
   689       H         65.98000000  *  158.12700000  * -50.04000000  *
   690       C         64.00800000  *  156.59900000  * -53.46500000  *
   691       O         63.39800000  *  156.94700000  * -54.47900000  *
   692       N         63.48900000  *  155.75300000  * -52.57000000  *
   693       H         64.06500000  *  155.49300000  * -51.77600000  *
   694       C         62.10000000  *  155.27000000  * -52.57400000  *
   695       H         61.52700000  *  155.78100000  * -53.35000000  *
   696       C         62.04300000  *  153.75700000  * -52.83200000  *
   697       H         62.75700000  *  153.25800000  * -52.17800000  *
   698       H         61.04600000  *  153.41700000  * -52.55200000  *
   699       C         62.29900000  *  153.36700000  * -54.29900000  *
   700       H         62.02700000  *  154.19400000  * -54.95500000  *
   701       C         63.76400000  *  152.99900000  * -54.52200000  *
   702       H         64.04300000  *  152.18100000  * -53.86200000  *
   703       H         63.92000000  *  152.70900000  * -55.56000000  *
   704       H         64.39600000  *  153.85700000  * -54.30100000  *
   705       C         61.44700000  *  152.15700000  * -54.68900000  *
   706       H         60.39300000  *  152.37200000  * -54.51200000  *
   707       H         61.57700000  *  151.94300000  * -55.74700000  *
   708       H         61.73600000  *  151.28600000  * -54.10400000  *
   709       C         61.44300000  *  155.59300000  * -51.23100000  *
   710       O         62.06800000  *  155.47300000  * -50.18400000  *
   711       N         60.19200000  *  156.03800000  * -51.24200000  *
   712       H         59.72700000  *  156.14300000  * -52.13600000  *
   713       C         59.59600000  *  156.73300000  * -50.09800000  *
   714       H         60.32000000  *  157.47000000  * -49.74600000  *
   715       C         58.37000000  *  157.51300000  * -50.58300000  *
   716       H         57.58700000  *  156.80800000  * -50.86100000  *
   717       H         58.01500000  *  158.12400000  * -49.75500000  *
   718       C         58.63300000  *  158.42200000  * -51.76300000  *
   719       N         58.78400000  *  158.00800000  * -53.09200000  *
   720       C         59.01900000  *  159.12600000  * -53.80100000  *
   721       H         59.18100000  *  159.16000000  * -54.87300000  *
   722       N         59.02300000  *  160.20000000  * -52.99400000  *
   723       H         59.17300000  *  161.15800000  * -53.29800000  *
   724       C         58.78100000  *  159.77700000  * -51.70600000  *
   725       H         58.72100000  *  160.39200000  * -50.81700000  *
   726       C         59.27500000  *  155.85900000  * -48.86800000  *
   727       O         59.08100000  *  156.41100000  * -47.78400000  *
   728       N         59.22900000  *  154.52400000  * -48.99600000  *
   729       H         59.40000000  *  154.12200000  * -49.90900000  *
   730       C         58.92300000  *  153.59700000  * -47.89300000  *
   731       H         59.37000000  *  153.99600000  * -46.98100000  *
   732       C         57.39000000  *  153.56000000  * -47.69700000  *
   733       H         57.05000000  *  154.57600000  * -47.49000000  *
   734       H         56.90900000  *  153.23000000  * -48.61900000  *
   735       C         56.93500000  *  152.65400000  * -46.54300000  *
   736       H         56.80100000  *  151.64000000  * -46.91700000  *
   737       H         57.70200000  *  152.64300000  * -45.77000000  *
   738       C         55.64300000  *  153.12700000  * -45.88600000  *
   739       O         55.65000000  *  153.79200000  * -44.86300000  *
   740       N         54.49000000  *  152.80400000  * -46.43000000  *
   741       H         53.66000000  *  153.13400000  * -45.96000000  *
   742       H         54.45500000  *  152.28600000  * -47.29000000  *
   743       C         59.52400000  *  152.19100000  * -48.11300000  *
   744       O         59.70100000  *  151.75700000  * -49.25100000  *
   745       N         59.83000000  *  151.47000000  * -47.02600000  *
   746       H         59.64600000  *  151.86900000  * -46.12000000  *
   747       C         60.23000000  *  150.05200000  * -47.05500000  *
   748       H         60.55000000  *  149.80800000  * -48.06400000  *
   749       C         61.44100000  *  149.80100000  * -46.13800000  *
   750       H         61.80500000  *  148.79000000  * -46.33200000  *
   751       H         62.24100000  *  150.48700000  * -46.41600000  *
   752       C         61.14900000  *  149.93200000  * -44.63800000  *
   753       O         60.30100000  *  149.17000000  * -44.12800000  *
   754       O         61.79500000  *  150.77400000  * -43.97300000  *
   755       C         59.05700000  *  149.11000000  * -46.71900000  *
   756       O         58.03100000  *  149.53400000  * -46.16800000  *
   757       N         59.19100000  *  147.81900000  * -47.04800000  *
   758       H         60.03800000  *  147.50900000  * -47.52500000  *
   759       C         58.10100000  *  146.88000000  * -46.84100000  *
   760       H         57.21800000  *  147.32500000  * -47.29300000  *
   761       C         58.41200000  *  145.57700000  * -47.59200000  *
   762       H         58.61300000  *  145.80400000  * -48.64400000  *
   763       H         59.28800000  *  145.12100000  * -47.15800000  *
   764       C         57.28700000  *  144.52700000  * -47.51900000  *
   765       H         57.05600000  *  144.28000000  * -46.48700000  *
   766       C         56.00700000  *  145.04400000  * -48.19600000  *
   767       H         56.23500000  *  145.37800000  * -49.20200000  *
   768       H         55.26800000  *  144.24500000  * -48.23100000  *
   769       H         55.59500000  *  145.87000000  * -47.62900000  *
   770       C         57.76800000  *  143.24900000  * -48.17500000  *
   771       H         58.61500000  *  142.85400000  * -47.62000000  *
   772       H         56.97300000  *  142.50400000  * -48.17100000  *
   773       H         58.06400000  *  143.44500000  * -49.20700000  *
   774       C         57.76400000  *  146.61300000  * -45.36900000  *
   775       O         56.60900000  *  146.37600000  * -45.03000000  *
   776       N         58.75700000  *  146.67700000  * -44.48800000  *
   777       H         59.64000000  *  147.08600000  * -44.79000000  *
   778       C         58.49100000  *  146.46700000  * -43.07300000  *
   779       H         57.97900000  *  145.55100000  * -42.87200000  *
   780       C         59.78200000  *  146.47800000  * -42.25400000  *
   781       H         60.44800000  *  145.70000000  * -42.62000000  *
   782       H         60.28600000  *  147.44000000  * -42.35600000  *
   783       C         59.49200000  *  146.22900000  * -40.76500000  *
   784       H         58.94200000  *  147.08300000  * -40.37400000  *
   785       H         58.87100000  *  145.33200000  * -40.67600000  *
   786       C         60.74500000  *  146.03800000  * -39.93500000  *
   787       H         61.36100000  *  145.25900000  * -40.37900000  *
   788       H         61.30800000  *  146.97100000  * -39.90700000  *
   789       C         60.37600000  *  145.60700000  * -38.51700000  *
   790       H         59.98500000  *  144.58900000  * -38.53700000  *
   791       H         61.27900000  *  145.61300000  * -37.90300000  *
   792       N         59.34600000  *  146.53100000  * -37.94700000  *
   793       H         58.44600000  *  146.48100000  * -38.44300000  *
   794       H         59.09000000  *  146.27800000  * -37.00400000  *
   795       H         59.61300000  *  147.50600000  * -37.97800000  *
   796       C         57.55800000  *  147.53800000  * -42.51200000  *
   797       O         56.61300000  *  147.23400000  * -41.78300000  *
   798       N         57.83900000  *  148.80900000  * -42.81000000  *
   799       H         58.67300000  *  148.99000000  * -43.37400000  *
   800       C         57.02300000  *  149.93800000  * -42.34900000  *
   801       H         56.92500000  *  149.87600000  * -41.26300000  *
   802       C         57.73500000  *  151.25500000  * -42.69500000  *
   803       H         58.76200000  *  151.20400000  * -42.32800000  *
   804       H         57.76200000  *  151.38000000  * -43.77800000  *
   805       C         57.04600000  *  152.46600000  * -42.04800000  *
   806       H         56.04300000  *  152.57600000  * -42.46200000  *
   807       H         56.96100000  *  152.29700000  * -40.97300000  *
   808       C         57.84300000  *  153.75600000  * -42.28600000  *
   809       H         58.82100000  *  153.66500000  * -41.80900000  *
   810       H         57.98300000  *  153.90700000  * -43.35800000  *
   811       C         57.09000000  *  154.95200000  * -41.69200000  *
   812       H         56.12100000  *  155.03800000  * -42.19300000  *
   813       H         56.90100000  *  154.75500000  * -40.63200000  *
   814       N         57.85400000  *  156.21600000  * -41.84100000  *
   815       H         58.02700000  *  156.42900000  * -42.81200000  *
   816       H         57.34800000  *  156.99400000  * -41.44300000  *
   817       H         58.74500000  *  156.16200000  * -41.37000000  *
   818       C         55.61200000  *  149.84500000  * -42.92700000  *
   819       O         54.63900000  *  150.09100000  * -42.22100000  *
   820       N         55.49500000  *  149.42600000  * -44.18900000  *
   821       H         56.35000000  *  149.26300000  * -44.71300000  *
   822       C         54.20500000  *  149.26000000  * -44.85200000  *
   823       H         53.62600000  *  150.17500000  * -44.72500000  *
   824       C         54.41000000  *  148.98800000  * -46.34000000  *
   825       H         54.98900000  *  149.80200000  * -46.77700000  *
   826       H         55.00200000  *  148.07700000  * -46.45200000  *
   827       C         53.12600000  *  148.85300000  * -47.10800000  *
   828       C         52.23100000  *  149.92200000  * -47.18600000  *
   829       H         52.46300000  *  150.85600000  * -46.69900000  *
   830       C         51.01500000  *  149.79500000  * -47.88400000  *
   831       H         50.32500000  *  150.62800000  * -47.91800000  *
   832       C         50.69700000  *  148.60300000  * -48.50200000  *
   833       H         49.75200000  *  148.50200000  * -49.02000000  *
   834       C         51.58700000  *  147.52100000  * -48.43200000  *
   835       H         51.33500000  *  146.58300000  * -48.91200000  *
   836       C         52.79500000  *  147.65400000  * -47.73300000  *
   837       H         53.46700000  *  146.81000000  * -47.67200000  *
   838       C         53.37400000  *  148.12200000  * -44.22700000  *
   839       O         52.16900000  *  148.28300000  * -44.00900000  *
   840       N         54.01600000  *  146.98100000  * -43.96600000  *
   841       H         55.00900000  *  146.90600000  * -44.17900000  *
   842       C         53.33800000  *  145.83600000  * -43.34100000  *
   843       H         52.47600000  *  145.52800000  * -43.93400000  *
   844       C         54.29200000  *  144.65000000  * -43.17000000  *
   845       H         55.15800000  *  145.02700000  * -42.63600000  *
   846       H         53.80700000  *  143.89200000  * -42.54700000  *
   847       C         54.73100000  *  144.00400000  * -44.46100000  *
   848       H         53.84700000  *  143.61400000  * -44.95900000  *
   849       H         55.19200000  *  144.69400000  * -45.15000000  *
   850       S         55.79700000  *  142.58100000  * -44.15400000  *
   851       C         57.05400000  *  143.29200000  * -43.18800000  *
   852       H         56.67800000  *  143.65800000  * -42.23500000  *
   853       H         57.80700000  *  142.53400000  * -42.98200000  *
   854       H         57.44300000  *  144.07900000  * -43.80900000  *
   855       C         52.84400000  *  146.26000000  * -41.95900000  *
   856       O         51.68200000  *  146.03200000  * -41.61400000  *
   857       N         53.72600000  *  146.88400000  * -41.17900000  *
   858       H         54.70100000  *  146.95700000  * -41.45300000  *
   859       C         53.34300000  *  147.35100000  * -39.84600000  *
   860       H         53.03400000  *  146.49700000  * -39.23800000  *
   861       C         54.50500000  *  148.07700000  * -39.15700000  *
   862       H         54.94100000  *  148.81500000  * -39.83000000  *
   863       H         54.12400000  *  148.60600000  * -38.28400000  *
   864       C         55.58400000  *  147.11500000  * -38.68500000  *
   865       O         55.26200000  *  145.90900000  * -38.57600000  *
   866       O         56.73300000  *  147.55200000  * -38.41700000  *
   867       C         52.15000000  *  148.27900000  * -39.96300000  *
   868       O         51.20300000  *  148.18000000  * -39.18700000  *
   869       N         52.18300000  *  149.16200000  * -40.95500000  *
   870       H         53.01600000  *  149.23700000  * -41.51800000  *
   871       C         51.08600000  *  150.10000000  * -41.17300000  *
   872       H         50.93100000  *  150.67400000  * -40.25800000  *
   873       C         51.42800000  *  151.06800000  * -42.31500000  *
   874       H         51.45500000  *  150.53900000  * -43.26600000  *
   875       H         50.66000000  *  151.83800000  * -42.36800000  *
   876       H         52.39300000  *  151.53600000  * -42.12800000  *
   877       C         49.78900000  *  149.37000000  * -41.49900000  *
   878       O         48.71100000  *  149.83600000  * -41.15600000  *
   879       N         49.90500000  *  148.22900000  * -42.16400000  *
   880       H         50.83800000  *  147.88500000  * -42.38200000  *
   881       C         48.74000000  *  147.45400000  * -42.57500000  *
   882       H         47.85700000  *  148.08600000  * -42.62800000  *
   883       H         48.90600000  *  147.02300000  * -43.58600000  *
   884       H         48.52600000  *  146.61900000  * -41.88800000  *
   885       H         72.54500000  *  137.05800000  * -55.15200000  *
   886       C         72.38600000  *  137.90500000  * -54.47400000  *
   887       O         73.28300000  *  138.71900000  * -54.28600000  *
   888       N         71.20100000  *  138.01500000  * -53.89800000  *
   889       H         70.47300000  *  137.31400000  * -54.05700000  *
   890       C         70.96800000  *  139.10000000  * -52.94900000  *
   891       H         71.50000000  *  140.00600000  * -53.22900000  *
   892       C         69.47700000  *  139.40500000  * -52.82500000  *
   893       H         69.09300000  *  139.71900000  * -53.79200000  *
   894       H         68.93000000  *  138.50600000  * -52.53300000  *
   895       C         69.17800000  *  140.45400000  * -51.81200000  *
   896       N         69.23000000  *  140.42300000  * -50.45900000  *
   897       C         68.94700000  *  141.69100000  * -50.01400000  *
   898       H         68.96900000  *  142.01200000  * -48.98400000  *
   899       N         68.72400000  *  142.47200000  * -51.05500000  *
   900       H         68.47200000  *  143.44500000  * -51.00700000  *
   901       C         68.85400000  *  141.75000000  * -52.15500000  *
   902       H         68.77100000  *  142.12600000  * -53.16500000  *
   903       C         71.52100000  *  138.65700000  * -51.58300000  *
   904       O         72.28000000  *  139.38000000  * -50.94700000  *
   905       N         71.11400000  *  137.47100000  * -51.14500000  *
   906       H         70.37100000  *  137.01600000  * -51.66500000  *
   907       C         71.55500000  *  136.88000000  * -49.87700000  *
   908       H         71.18200000  *  135.84900000  * -49.87900000  *
   909       C         73.07600000  *  136.85300000  * -49.83700000  *
   910       H         73.53100000  *  137.83300000  * -49.86900000  *
   911       H         73.36600000  *  136.47900000  * -48.85100000  *
   912       C         73.64700000  *  135.85900000  * -50.81700000  *
   913       H         73.29800000  *  134.87100000  * -50.67200000  *
   914       H         73.21600000  *  136.10500000  * -51.78700000  *
   915       C         75.11700000  *  136.08400000  * -50.99900000  *
   916       H         75.61200000  *  135.95400000  * -50.03300000  *
   917       H         75.49500000  *  135.33200000  * -51.69500000  *
   918       N         75.35800000  *  137.42700000  * -51.50600000  *
   919       H         74.62100000  *  138.12700000  * -51.38200000  *
   920       C         76.54800000  *  137.85900000  * -51.89000000  *
   921       N         77.59300000  *  137.04400000  * -51.81500000  *
   922       H         77.44700000  *  136.21200000  * -51.26800000  *
   923       H         78.49900000  *  137.44300000  * -51.92100000  *
   924       N         76.69000000  *  139.09300000  * -52.35600000  *
   925       H         75.86000000  *  139.69200000  * -52.33800000  *
   926       H         77.56200000  *  139.47800000  * -52.67100000  *
   927       C         71.03700000  *  137.42400000  * -48.54200000  *
   928       O         71.18700000  *  136.76800000  * -47.50900000  *
   929       N         70.43700000  *  138.60400000  * -48.51600000  *
   930       H         70.32800000  *  139.16900000  * -49.34700000  *
   931       C         69.93700000  *  139.07600000  * -47.23100000  *
   932       H         69.76500000  *  138.24900000  * -46.54100000  *
   933       C         70.93500000  *  140.04200000  * -46.56200000  *
   934       H         71.90900000  *  139.56600000  * -46.50900000  *
   935       H         71.04400000  *  140.94300000  * -47.17900000  *
   936       C         70.51300000  *  140.42800000  * -45.14700000  *
   937       O         70.17200000  *  139.51500000  * -44.35500000  *
   938       O         70.51000000  *  141.64400000  * -44.82500000  *
   939       C         68.58700000  *  139.73400000  * -47.37800000  *
   940       O         68.35000000  *  140.81000000  * -46.83500000  *
   941       N         67.68700000  *  139.08300000  * -48.11000000  *
   942       H         67.94300000  *  138.20800000  * -48.54500000  *
   943       C         66.35900000  *  139.64900000  * -48.29900000  *
   944       H         66.47700000  *  140.66700000  * -48.65900000  *
   945       C         65.54600000  *  138.81300000  * -49.28800000  *
   946       H         65.58300000  *  137.78400000  * -48.94500000  *
   947       H         64.50600000  *  139.14000000  * -49.25500000  *
   948       C         66.02700000  *  138.85500000  * -50.73600000  *
   949       H         67.06400000  *  138.52800000  * -50.78200000  *
   950       C         65.17300000  *  137.91700000  * -51.58300000  *
   951       H         64.15900000  *  138.30500000  * -51.68800000  *
   952       H         65.63400000  *  137.80700000  * -52.55000000  *
   953       H         65.13400000  *  136.93500000  * -51.11000000  *
   954       C         65.92100000  *  140.27700000  * -51.26400000  *
   955       H         66.42000000  *  140.99600000  * -50.63300000  *
   956       H         66.44200000  *  140.27500000  * -52.20900000  *
   957       H         64.88200000  *  140.56100000  * -51.39700000  *
   958       C         65.59400000  *  139.73400000  * -46.98200000  *
   959       O         65.58600000  *  138.79200000  * -46.16600000  *
   960       N         64.96000000  *  140.85800000  * -46.74100000  *
   961       H         64.97000000  *  141.59000000  * -47.43800000  *
   962       C         64.17600000  *  141.06900000  * -45.53800000  *
   963       H         63.56700000  *  140.17700000  * -45.39200000  *
   964       C         65.06000000  *  141.24200000  * -44.28300000  *
   965       H         64.42700000  *  141.30100000  * -43.39700000  *
   966       H         65.66500000  *  140.34300000  * -44.16700000  *
   967       C         65.98900000  *  142.46400000  * -44.29100000  *
   968       H         66.39200000  *  142.61000000  * -45.29000000  *
   969       H         65.42800000  *  143.35100000  * -43.99700000  *
   970       C         67.15300000  *  142.22200000  * -43.32200000  *
   971       H         66.76400000  *  141.95600000  * -42.33700000  *
   972       H         67.73700000  *  141.38100000  * -43.70500000  *
   973       C         68.05400000  *  143.45400000  * -43.19100000  *
   974       H         68.13800000  *  143.94000000  * -44.16800000  *
   975       H         67.57700000  *  144.16600000  * -42.50700000  *
   976       N         69.40300000  *  143.07000000  * -42.69600000  *
   977       H         69.87900000  *  142.47200000  * -43.38500000  *
   978       H         69.97400000  *  143.88700000  * -42.51900000  *
   979       H         69.33200000  *  142.55600000  * -41.82800000  *
   980       C         63.27000000  *  142.23300000  * -45.83200000  *
   981       O         63.63000000  *  143.07800000  * -46.65100000  *
   982       N         62.11200000  *  142.30300000  * -45.18600000  *
   983       C         61.62600000  *  141.34600000  * -44.17100000  *
   984       H         62.10000000  *  141.53200000  * -43.20900000  *
   985       H         61.74500000  *  140.31100000  * -44.47600000  *
   986       C         60.16400000  *  141.66900000  * -44.09500000  *
   987       H         59.73700000  *  141.34900000  * -43.14300000  *
   988       H         59.63700000  *  141.20600000  * -44.93200000  *
   989       C         60.16000000  *  143.18900000  * -44.24800000  *
   990       H         60.51600000  *  143.64900000  * -43.32100000  *
   991       H         59.20200000  *  143.56500000  * -44.57400000  *
   992       C         61.14500000  *  143.38000000  * -45.40300000  *
   993       H         60.63400000  *  143.20500000  * -46.34500000  *
   994       C         61.77100000  *  144.77100000  * -45.44800000  *
   995       O         61.39200000  *  145.58400000  * -46.27300000  *
   996       N         62.72700000  *  145.09400000  * -44.55900000  *
   997       H         62.97500000  *  144.41100000  * -43.85900000  *
   998       C         63.43200000  *  146.40000000  * -44.54300000  *
   999       H         62.69000000  *  147.19700000  * -44.46700000  *
  1000       C         64.37200000  *  146.49400000  * -43.32900000  *
  1001       H         65.06500000  *  145.65300000  * -43.34400000  *
  1002       H         64.95900000  *  147.41000000  * -43.42000000  *
  1003       C         63.65100000  *  146.54400000  * -41.97600000  *
  1004       H         62.93500000  *  147.36600000  * -41.98900000  *
  1005       H         63.11300000  *  145.61200000  * -41.81700000  *
  1006       C         64.63200000  *  146.73900000  * -40.81800000  *
  1007       O         65.64900000  *  146.06700000  * -40.70900000  *
  1008       N         64.36900000  *  147.64900000  * -39.90600000  *
  1009       H         65.02600000  *  147.76700000  * -39.14800000  *
  1010       H         63.55900000  *  148.24400000  * -39.98300000  *
  1011       C         64.27600000  *  146.68600000  * -45.80300000  *
  1012       O         64.48600000  *  147.84300000  * -46.16000000  *
  1013       N         64.75800000  *  145.63800000  * -46.47600000  *
  1014       H         64.46200000  *  144.71900000  * -46.18000000  *
  1015       C         65.53700000  *  145.70100000  * -47.71400000  *
  1016       H         66.10300000  *  146.63500000  * -47.74300000  *
  1017       C         66.54400000  *  144.52100000  * -47.74600000  *
  1018       H         66.03600000  *  143.59600000  * -47.48900000  *
  1019       H         66.92300000  *  144.40200000  * -48.75900000  *
  1020       C         67.76900000  *  144.69200000  * -46.85700000  *
  1021       O         68.07900000  *  145.76500000  * -46.36600000  *
  1022       N         68.52400000  *  143.64200000  * -46.61800000  *
  1023       H         69.38600000  *  143.77400000  * -46.11500000  *
  1024       H         68.27000000  *  142.69800000  * -46.89600000  *
  1025       C         64.63400000  *  145.71600000  * -48.96600000  *
  1026       O         65.15800000  *  145.63400000  * -50.07500000  *
  1027       N         63.30000000  *  145.80300000  * -48.83400000  *
  1028       H         62.89500000  *  145.87300000  * -47.90900000  *
  1029       C         62.40600000  *  145.84500000  * -49.97900000  *
  1030       H         62.94700000  *  145.74800000  * -50.91900000  *
  1031       C         61.36900000  *  144.72100000  * -49.88900000  *
  1032       H         60.76900000  *  144.86100000  * -48.99200000  *
  1033       H         60.74400000  *  144.79800000  * -50.77200000  *
  1034       C         62.03600000  *  143.32400000  * -49.85900000  *
  1035       H         62.67100000  *  143.24000000  * -48.98800000  *
  1036       C         61.00200000  *  142.26000000  * -49.77100000  *
  1037       H         60.24600000  *  142.42800000  * -50.53400000  *
  1038       H         61.44700000  *  141.27100000  * -49.89000000  *
  1039       H         60.52000000  *  142.31900000  * -48.79800000  *
  1040       C         62.89500000  *  143.12600000  * -51.08400000  *
  1041       H         63.82900000  *  143.66800000  * -50.95600000  *
  1042       H         63.12900000  *  142.06900000  * -51.20900000  *
  1043       H         62.39300000  *  143.49200000  * -51.96600000  *
  1044       C         61.76300000  *  147.21800000  * -49.95200000  *
  1045       O         61.15000000  *  147.60200000  * -48.96600000  *
  1046       N         61.89000000  *  147.98500000  * -51.02800000  *
  1047       H         62.38300000  *  147.61600000  * -51.83600000  *
  1048       C         61.44300000  *  149.37700000  * -51.05600000  *
  1049       H         61.05000000  *  149.66900000  * -50.08500000  *
  1050       C         62.61600000  *  150.29800000  * -51.36900000  *
  1051       H         62.95200000  *  150.10700000  * -52.38900000  *
  1052       H         62.24900000  *  151.32000000  * -51.30300000  *
  1053       C         63.80900000  *  150.13800000  * -50.41800000  *
  1054       H         64.23500000  *  149.14200000  * -50.52300000  *
  1055       C         64.85100000  *  151.16200000  * -50.81900000  *
  1056       H         64.49200000  *  152.15600000  * -50.56100000  *
  1057       H         65.77600000  *  150.94500000  * -50.29200000  *
  1058       H         65.03500000  *  151.13300000  * -51.88500000  *
  1059       C         63.46300000  *  150.37400000  * -48.95100000  *
  1060       H         62.84000000  *  149.56200000  * -48.59000000  *
  1061       H         64.37300000  *  150.39200000  * -48.35400000  *
  1062       H         62.93500000  *  151.31900000  * -48.83200000  *
  1063       C         60.32400000  *  149.56400000  * -52.06300000  *
  1064       O         60.42300000  *  149.10400000  * -53.18800000  *
  1065       N         59.26800000  *  150.25600000  * -51.67700000  *
  1066       H         59.36500000  *  150.76300000  * -50.80000000  *
  1067       C         58.08300000  *  150.44700000  * -52.50800000  *
  1068       H         58.17300000  *  149.92400000  * -53.45700000  *
  1069       C         56.81900000  *  149.90600000  * -51.78600000  *
  1070       H         55.94300000  *  150.08700000  * -52.41500000  *
  1071       C         56.95000000  *  148.40400000  * -51.54300000  *
  1072       H         57.75300000  *  148.18300000  * -50.83300000  *
  1073       H         56.01300000  *  148.00400000  * -51.15200000  *
  1074       H         57.15800000  *  147.91500000  * -52.48900000  *
  1075       C         56.64700000  *  150.60600000  * -50.43300000  *
  1076       H         57.48200000  *  150.38000000  * -49.77500000  *
  1077       H         56.60500000  *  151.68300000  * -50.57600000  *
  1078       C         55.37000000  *  150.22200000  * -49.68600000  *
  1079       H         55.48900000  *  149.24800000  * -49.22200000  *
  1080       H         55.17000000  *  150.96500000  * -48.91000000  *
  1081       H         54.52900000  *  150.16800000  * -50.38500000  *
  1082       C         57.87200000  *  151.93000000  * -52.81700000  *
  1083       O         58.38200000  *  152.79400000  * -52.10000000  *
  1084       N         57.14900000  *  152.22000000  * -53.89700000  *
  1085       H         56.70500000  *  151.48200000  * -54.43300000  *
  1086       C         56.84100000  *  153.60200000  * -54.22700000  *
  1087       H         57.16800000  *  154.27800000  * -53.43100000  *
  1088       C         57.50400000  *  154.05300000  * -55.54100000  *
  1089       H         57.21800000  *  155.07000000  * -55.80500000  *
  1090       H         58.58200000  *  154.04400000  * -55.38800000  *
  1091       C         57.19300000  *  153.14600000  * -56.70100000  *
  1092       O         56.13500000  *  152.53500000  * -56.76400000  *
  1093       N         58.11500000  *  153.07200000  * -57.64100000  *
  1094       H         57.83300000  *  152.61700000  * -58.48600000  *
  1095       H         58.88600000  *  153.71500000  * -57.62100000  *
  1096       C         55.33100000  *  153.75800000  * -54.32100000  *
  1097       O         54.57600000  *  152.79900000  * -54.11400000  *
  1098       N         54.88500000  *  154.97100000  * -54.62100000  *
  1099       H         55.52100000  *  155.73600000  * -54.79200000  *
  1100       C         53.46400000  *  155.24700000  * -54.72300000  *
  1101       H         52.92700000  *  154.82600000  * -53.87200000  *
  1102       C         53.20900000  *  156.78000000  * -54.75500000  *
  1103       H         52.16900000  *  156.98000000  * -55.02600000  *
  1104       C         53.47800000  *  157.39700000  * -53.41000000  *
  1105       H         54.52100000  *  157.25500000  * -53.13000000  *
  1106       H         53.26600000  *  158.46500000  * -53.44600000  *
[...]
 1005  H   0.85367
 1006  C   1.06657   0.81263   0.75381   0.79874
 1007  O   1.88357   1.35944   1.54870   1.78404
 1008  N   1.52737   1.34969   1.40919   1.34523
 1009  H   0.66425
 1010  H   0.69211
 1011  C   1.08387   0.76707   0.79203   0.81937
 1012  O   1.88921   1.62685   1.28437   1.70961
 1013  N   1.55245   1.52121   1.20206   1.30696
 1014  H   0.67260
 1015  C   1.07167   0.94328   1.09209   0.82000
 1016  H   0.80232
 1017  C   1.06979   1.05497   1.09121   1.15824
 1018  H   0.83516
 1019  H   0.80572
 1020  C   1.06153   0.81191   0.77944   0.77480
 1021  O   1.88133   1.74731   1.38039   1.57900
 1022  N   1.53348   1.32005   1.19842   1.59460
 1023  H   0.66953
 1024  H   0.65773
 1025  C   1.09060   0.78505   0.71259   0.85265
 1026  O   1.87695   1.77156   1.62475   1.39018
 1027  N   1.54123   1.12582   1.65925   1.18472
 1028  H   0.65020
 1029  C   1.06948   0.96877   0.98364   0.97321
 1030  H   0.81511
 1031  C   1.06725   1.06526   0.99363   1.17592
 1032  H   0.83265
 1033  H   0.84865
 1034  C   1.04097   1.01080   0.95060   1.05966
 1035  H   0.85418
 1036  C   1.04882   1.12521   1.11255   1.17393
 1037  H   0.84832
 1038  H   0.85732
 1039  H   0.86057
 1040  C   1.05132   1.14376   1.16458   1.10200
 1041  H   0.84412
 1042  H   0.86460
 1043  H   0.85133
 1044  C   1.07606   0.75442   0.84275   0.75933
 1045  O   1.87359   1.52656   1.79179   1.43795
 1046  N   1.54592   1.56089   1.17315   1.24677
 1047  H   0.64973
 1048  C   1.06496   0.98803   0.82327   1.10391
 1049  H   0.80913
 1050  C   1.06432   1.02499   1.10827   1.12015
 1051  H   0.85249
 1052  H   0.83772
 1053  C   1.04826   0.96492   1.06518   0.97891
 1054  H   0.87007
 1055  C   1.05353   1.12144   1.13812   1.15717
 1056  H   0.84328
 1057  H   0.86005
 1058  H   0.86461
 1059  C   1.05463   1.18101   1.18367   1.03377
 1060  H   0.83582
 1061  H   0.84911
 1062  H   0.84286
 1063  C   1.07537   0.79884   0.74288   0.81484
 1064  O   1.86787   1.83472   1.63174   1.34798
 1065  N   1.54238   1.18776   1.46640   1.29743
 1066  H   0.63968
 1067  C   1.07602   0.89289   1.00280   1.04005
 1068  H   0.81455
 1069  C   1.06493   1.01399   0.99080   1.02309
 1070  H   0.84074
 1071  C   1.05433   1.18000   1.03681   1.17293
 1072  H   0.84470
 1073  H   0.84635
 1074  H   0.85589
 1075  C   1.05403   1.07334   1.11919   1.02976
 1076  H   0.84653
 1077  H   0.86158
 1078  C   1.05250   1.08495   1.16084   1.13171
 1079  H   0.84622
 1080  H   0.87468
 1081  H   0.84789
 1082  C   1.08730   0.74051   0.88953   0.74114
 1083  O   1.88694   1.56945   1.57744   1.55357
 1084  N   1.54367   1.50776   1.14234   1.34155
 1085  H   0.63882
 1086  C   1.06100   0.99411   0.88789   1.01520
 1087  H   0.80660
 1088  C   1.07111   1.17446   1.11363   1.04341
 1089  H   0.83005
 1090  H   0.81697
 1091  C   1.06754   0.77869   0.79262   0.82267
 1092  O   1.88771   1.30756   1.50624   1.80337
 1093  N   1.53675   1.31192   1.52163   1.27889
 1094  H   0.69305
 1095  H   0.69406
 1096  C   1.08088   0.88524   0.77772   0.75150
 1097  O   1.89444   1.62440   1.43466   1.52614
 1098  N   1.54121   1.14517   1.19520   1.69371
 1099  H   0.67692
 1100  C   1.08536   0.83319   1.04093   1.09591
 1101  H   0.80901
 1102  C   1.08452   0.98692   0.88303   0.88962
 1103  H   0.85797
 1104  C   1.05301   1.18520   1.17297   1.05386
 1105  H   0.83943
 1106  H   0.83159
 1107  H   0.83374
 1108  O   1.85148   1.58063   1.82049   1.32247
 1109  H   0.67568
 1110  C   1.07463   0.81029   0.77006   0.81929
 1111  O   1.88598   1.23156   1.61623   1.81387
 1112  N   1.53431   1.18214   1.58147   1.22130
 1113  H   0.69131
 1114  C   1.05383   1.13276   1.13986   0.88764
 1115  H   0.84122
 1116  H   0.87148
 1117  H   0.83540
 1118  H   0.86767
 1119  C   1.10018   0.76466   0.75340   0.92057
 1120  O   1.88718   1.66990   1.57176   1.45697
 1121  N   1.54651   1.44424   1.35135   1.20803
 1122  H   0.67426
 1123  C   1.08022   0.92962   1.08536   0.92418
 1124  H   0.81003
 1125  C   1.07315   1.07897   0.95466   0.98269
 1126  H   0.84446
 1127  C   1.05753   1.18810   1.08039   1.12368
 1128  H   0.83780
 1129  H   0.85401
 1130  H   0.85838
 1131  C   1.05396   1.07454   1.13476   1.01848
 1132  H   0.85596
 1133  H   0.85310
 1134  C   1.04894   1.14436   1.14772   1.09035
 1135  H   0.85582
 1136  H   0.85945
 1137  H   0.84919
 1138  C   1.07501   0.84245   0.74916   0.79230
 1139  O   1.88226   1.88196   1.48240   1.36308
 1140  N   1.54639   1.09809   1.54178   1.34234
 1141  H   0.63190
 1142  C   1.06854   0.84969   1.04335   1.03855
 1143  H   0.81419
 1144  C   1.05974   1.08846   1.05613   1.09051
 1145  H   0.83180
 1146  H   0.84681
 1147  C   1.05089   1.08874   1.03319   1.08264
 1148  H   0.85968
 1149  H   0.83939
 1150  C   1.06107   1.07579   1.05706   1.09758
 1151  H   0.82451
 1152  H   0.82668
 1153  C   1.08102   1.03068   0.99317   1.07481
 1154  H   0.83808
 1155  H   0.82678
 1156  N   1.46558   1.23021   1.24646   1.26001
 1157  H   0.65576
 1158  H   0.69927
 1159  H   0.73179
 1160  C   1.07982   0.77834   0.75072   0.82896
 1161  O   1.88201   1.76748   1.68855   1.28797
 1162  N   1.54489   1.33078   1.42966   1.22895
 1163  H   0.64221
 1164  C   1.06968   0.91844   0.95573   1.02974
 1165  H   0.83147
 1166  C   1.06259   1.09800   1.02054   1.13371
 1167  H   0.83443
 1168  H   0.84828
 1169  C   1.05388   1.07596   0.96019   0.95819
 1170  H   0.85414
 1171  C   1.06150   1.15488   1.13919   1.09676
 1172  H   0.86258
 1173  H   0.85281
 1174  H   0.84795
 1175  C   1.05713   1.17424   1.13651   1.09493
 1176  H   0.85052
 1177  H   0.85394
 1178  H   0.86054
 1179  C   1.08593   0.79176   0.80090   0.75873
 1180  O   1.88113   1.63229   1.59751   1.53819
 1181  N   1.54363   1.36307   1.43988   1.16253
 1182  H   0.64092
 1183  C   1.06697   0.91266   0.93064   1.04779
 1184  H   0.83122
 1185  C   1.05908   1.16313   1.07535   1.16094
 1186  H   0.81533
 1187  H   0.85444
 1188  H   0.81923
 1189  C   1.09021   0.78231   0.78957   0.74506
 1190  O   1.87269   1.83250   1.35552   1.58953
 1191  N   1.54750   1.18318   1.32234   1.49799
 1192  H   0.68691
 1193  C   1.07490   0.88223   1.06997   0.93662
 1194  H   0.83748
 1195  C   1.07858   1.15411   1.17556   1.00553
 1196  H   0.80030
 1197  H   0.83250
 1198  C   1.06907   0.73052   0.73610   0.69194
 1199  O   1.88695   1.65325   1.47551   1.70927
 1200  O   1.87012   1.81243   1.44781   1.74275
 1201  C   1.08818   0.81919   0.79646   0.74896
 1202  O   1.88736   1.28589   1.79782   1.57278
 1203  N   1.56609   1.29176   1.17008   1.53749
 1204  H   0.68118
 1205  C   1.07978   1.01811   0.91601   0.95410
 1206  H   0.84126
 1207  C   1.05591   1.08075   1.20350   0.95989
 1208  H   0.81532
 1209  H   0.81663
 1210  C   1.07361   0.97056   0.97760   0.97072
 1211  C   1.08856   1.03615   1.04174   1.01338
 1212  H   0.84213
 1213  C   1.08469   0.99229   1.05629   1.01728
 1214  H   0.85922
 1215  C   1.08695   1.05798   0.99210   1.02823
 1216  H   0.84930
 1217  C   1.08966   1.03664   1.03384   0.98347
 1218  H   0.83042
 1219  C   1.08691   0.98595   1.05947   1.02053
 1220  H   0.84324
 1221  C   1.09012   0.80365   0.77410   0.76253
 1222  O   1.88492   1.44632   1.56384   1.71424
 1223  N   1.53944   1.41494   1.43523   1.13536
 1224  H   0.67927
 1225  C   1.06877   0.98406   1.07061   0.98566
 1226  H   0.81169
 1227  H   0.80391
 1228  C   1.07980   0.82915   0.77464   0.70246
 1229  O   1.87530   1.84492   1.33279   1.62690
 1230  N   1.55630   1.29228   1.23449   1.44028
 1231  H   0.66860
 1232  C   1.07729   0.89963   1.03791   0.96104
 1233  H   0.84853
 1234  C   1.06843   1.11108   0.94601   1.18158
 1235  H   0.82769
 1236  H   0.83411
 1237  C   1.05189   1.03202   0.96376   1.00783
 1238  H   0.86267
 1239  C   1.05597   1.16832   1.06326   1.16682
 1240  H   0.85573
 1241  H   0.84511
 1242  H   0.85310
 1243  C   1.05579   1.17209   1.18833   1.04755
 1244  H   0.84487
 1245  H   0.83780
 1246  H   0.85961
 1247  C   1.09710   0.86607   0.76813   0.73952
 1248  O   1.88377   1.31151   1.77497   1.56757
 1249  N   1.58481   1.28118   1.24148   1.53010
 1250  H   0.66452
 1251  C   1.06943   0.95957   0.98992   0.96210
 1252  H   0.82503
 1253  C   1.05734   1.14342   1.09970   1.16267
 1254  H   0.86484
 1255  H   0.82096
 1256  H   0.81214
 1257  C   1.07878   0.84932   0.76921   0.78347
 1258  O   1.89119   1.45716   1.52823   1.62170
 1259  N   1.54612   1.31339   1.54423   1.15323
 1260  H   0.70126
 1261  C   1.06026   0.93097   1.14798   1.09012
 1262  H   0.81719
 1263  H   0.85567
 1264  H   0.84422
 1265  H   0.88528
 1266  C   1.09721   0.75877   0.82380   0.87000
 1267  O   1.89047   1.46990   1.31226   1.86348
 1268  N   1.54393   1.50177   1.35453   1.15124
 1269  H   0.69046
 1270  C   1.07225   1.10781   0.96302   0.82216
 1271  H   0.80427
 1272  C   1.05799   1.09634   1.03299   1.14023
 1273  H   0.84071
 1274  H   0.83397
 1275  C   1.06457   0.97589   0.94776   0.96728
 1276  C   1.08136   1.01346   0.99073   1.05583
 1277  H   0.84801
 1278  C   1.08025   1.03479   1.02495   0.99565
 1279  H   0.85622
 1280  C   1.07818   1.00860   1.05279   1.02430
 1281  H   0.86182
 1282  C   1.07771   1.02510   1.00538   1.05002
 1283  H   0.86396
 1284  C   1.08045   1.06030   1.02581   0.99980
 1285  H   0.84787
 1286  C   1.08369   0.77234   0.80322   0.81740
 1287  O   1.89080   1.50330   1.62952   1.48195
 1288  N   1.53989   1.18275   1.36155   1.44857
 1289  H   0.67895
 1290  C   1.05561   1.13014   0.97872   0.99587
 1291  H   0.83578
 1292  H   0.79607
 1293  C   1.07764   0.78697   0.75904   0.80397
 1294  O   1.87333   1.54267   1.38705   1.83569
 1295  N   1.53535   1.40910   1.37209   1.18515
 1296  H   0.67059
 1297  C   1.07394   1.00542   1.18571   0.89168
 1298  H   0.81573
 1299  H   0.81532
 1300  C   1.07884   0.79690   0.76153   0.81356
 1301  O   1.89012   1.46388   1.49148   1.68864
 1302  N   1.56548   1.46202   1.16910   1.27053
 1303  C   1.06825   1.06583   0.87122   1.05081
 1304  H   0.84435
 1305  H   0.84920
 1306  C   1.05756   1.03535   1.14315   1.06226
 1307  H   0.83951
 1308  H   0.79869
 1309  C   1.05943   1.09390   0.99332   1.15171
 1310  H   0.85798
 1311  H   0.83284
 1312  C   1.07056   1.04400   0.98698   0.88031
 1313  H   0.83390
 1314  C   1.09125   0.79088   0.79438   0.82251
 1315  O   1.89223   1.35946   1.36159   1.85866
 1316  N   1.54613   1.41375   1.50935   1.12658
 1317  H   0.68441
 1318  C   1.07857   1.04434   1.12154   0.88176
 1319  H   0.80288
 1320  H   0.82135
 1321  C   1.08605   0.82891   0.73294   0.78195
 1322  O   1.88600   1.69517   1.71566   1.32123
 1323  N   1.55275   1.23496   1.41498   1.34513
 1324  H   0.68890
 1325  C   1.07640   0.85829   1.06006   0.98284
 1326  H   0.82244
 1327  C   1.05904   1.17697   1.07703   0.96472
 1328  H   0.84760
 1329  H   0.82234
 1330  C   1.05756   1.11769   1.05731   1.05044
 1331  H   0.83372
 1332  H   0.87471
 1333  C   1.06934   1.10910   1.11911   0.74601
 1334  H   0.83577
 1335  H   0.80751
 1336  N   1.53394   1.59279   1.27305   1.10595
 1337  H   0.67035
 1338  C   0.97633   0.84038   0.80650   0.79174
 1339  N   1.49889   1.55649   1.25212   1.24773
 1340  H   0.64580
 1341  H   0.65739
 1342  N   1.50167   1.59054   1.35405   1.14271
 1343  H   0.66384
 1344  H   0.65940
 1345  C   1.08044   0.77712   0.78173   0.84607
 1346  O   1.89145   1.44916   1.63067   1.54527
 1347  N   1.54294   1.55348   1.19467   1.24187
 1348  H   0.68940
 1349  C   1.09100   1.00849   1.01061   0.91182
 1350  H   0.80279
 1351  C   1.08445   0.92355   0.92629   0.88652
 1352  H   0.85241
 1353  C   1.05833   1.10775   1.12661   1.20001
 1354  H   0.82488
 1355  H   0.82786
 1356  H   0.84207
 1357  O   1.84283   1.59266   1.64040   1.56061
 1358  H   0.61089
 1359  C   1.07944   0.81678   0.79823   0.77217
 1360  O   1.88899   1.52492   1.78929   1.35919
 1361  N   1.55417   1.33136   1.29542   1.37703
 1362  H   0.64976
 1363  C   1.07369   0.97531   0.92485   1.00625
 1364  H   0.83121
 1365  C   1.05692   1.09302   1.06717   1.08528
 1366  H   0.85174
 1367  H   0.83262
 1368  C   1.05788   0.97108   0.97371   1.08268
 1369  C   1.08207   0.97472   1.07504   0.99625
 1370  H   0.85132
 1371  C   1.08517   1.08101   0.99868   1.00279
 1372  H   0.80369
 1373  C   1.06955   0.83474   0.89445   0.86426
 1374  O   1.84112   1.46076   1.54276   1.69805
 1375  H   0.59606
 1376  C   1.07112   0.99607   1.09212   1.08644
 1377  H   0.85623
 1378  C   1.07730   1.05278   1.00371   1.02088
 1379  H   0.87731
 1380  C   1.08219   0.79271   0.75806   0.82378
 1381  O   1.88959   1.35968   1.51344   1.81061
 1382  N   1.55305   1.20483   1.61377   1.14972
 1383  H   0.65926
 1384  C   1.08590   1.09406   1.05462   0.83748
 1385  H   0.85027
 1386  C   1.08022   0.85407   0.86996   1.00666
 1387  H   0.87877
 1388  C   1.05615   1.09554   1.13629   1.19019
 1389  H   0.83128
 1390  H   0.85677
 1391  H   0.85280
 1392  O   1.84996   1.30826   1.76187   1.64723
 1393  H   0.59874
 1394  C   1.08845   0.86135   0.77080   0.80813
 1395  O   1.89642   1.23716   1.65244   1.60029
 1396  N   1.54730   1.20477   1.30483   1.51993
 1397  H   0.69403
 1398  C   1.06724   1.01938   1.01446   1.05278
 1399  H   0.88137
 1400  H   0.84562
 1401  C   1.06954   0.85141   0.75629   0.78805
 1402  O   1.89314   1.66794   1.37987   1.51118
 1403  N   1.55714   1.14883   1.53495   1.33745
 1404  H   0.68940
 1405  C   1.07233   0.82237   0.97451   1.14224
 1406  H   0.83258
 1407  C   1.05673   1.16620   1.00896   1.02503
 1408  H   0.84882
 1409  H   0.82919
 1410  C   1.06034   1.20384   0.98265   1.16542
 1411  H   0.83419
 1412  H   0.83646
 1413  C   1.06192   0.73980   0.72247   0.73490
 1414  O   1.89262   1.42630   1.79661   1.60778
 1415  O   1.88360   1.53632   1.58085   1.81830
 1416  C   1.09495   0.76510   0.86737   0.74671
 1417  O   1.88694   1.65420   1.65748   1.40355
 1418  N   1.54800   1.31566   1.19217   1.48961
 1419  H   0.67084
 1420  C   1.07023   1.04631   0.86937   1.02939
 1421  H   0.87211
 1422  C   1.05523   1.03147   1.04082   0.95563
 1423  H   0.82436
 1424  C   1.05492   1.16596   1.03697   1.20502
 1425  H   0.86136
 1426  H   0.84219
 1427  H   0.82095
 1428  C   1.05353   1.16766   1.15515   1.07936
 1429  H   0.85314
 1430  H   0.84013
 1431  H   0.87316
 1432  C   1.07376   0.79258   0.74894   0.84324
 1433  O   1.88978   1.32165   1.58647   1.74359
 1434  N   1.53883   1.27330   1.49348   1.21305
 1435  H   0.68183
 1436  C   1.07437   1.00900   1.04586   0.86618
 1437  H   0.84263
 1438  C   1.06133   1.03052   1.01672   0.97979
 1439  H   0.83886
 1440  C   1.05312   1.18225   1.10079   1.10937
 1441  H   0.83369
 1442  H   0.84918
 1443  H   0.86529
 1444  C   1.05654   1.19161   1.16298   1.04376
 1445  H   0.86037
 1446  H   0.83751
 1447  H   0.83026
 1448  C   1.08289   0.80946   0.79859   0.76216
 1449  O   1.88746   1.79493   1.44282   1.43295
 1450  N   1.53612   1.24334   1.43818   1.31519
 1451  H   0.68475
 1452  C   1.07800   0.90340   0.96813   1.14033
 1453  H   0.81618
 1454  C   1.07866   0.93178   0.84250   0.98943
 1455  H   0.87335
 1456  C   1.05580   1.10010   1.13385   1.18155
 1457  H   0.84021
 1458  H   0.82850
 1459  H   0.84574
 1460  O   1.85211   1.45300   1.47021   1.77143
 1461  H   0.66529
 1462  C   1.07539   0.76583   0.82458   0.81390
 1463  O   1.88677   1.45224   1.86778   1.32187
 1464  N   1.53708   1.58485   1.12328   1.28799
 1465  H   0.68730
 1466  C   1.05221   1.16002   0.87633   1.13275
 1467  H   0.82189
 1468  H   0.85367
 1469  H   0.86648
 1470  H   0.86936
 1471  C   1.10172   0.76406   0.81168   0.89547
 1472  O   1.88718   1.42763   1.33478   1.87147
 1473  N   1.55039   1.52613   1.36330   1.14161
 1474  H   0.68714
 1475  C   1.07788   1.09032   1.02960   0.79380
 1476  H   0.81269
 1477  C   1.05936   1.13172   1.00686   1.09917
 1478  H   0.81558
 1479  H   0.82665
 1480  C   1.06832   0.97626   0.98742   0.99808
 1481  C   1.08106   0.99050   1.01962   1.00404
 1482  H   0.84562
 1483  C   1.07574   1.10239   1.04753   1.06487
 1484  H   0.82524
 1485  C   1.07250   0.88877   0.88818   0.88301
 1486  O   1.84180   1.33082   1.60065   1.72820
 1487  H   0.65405
 1488  C   1.07530   0.98851   1.10182   1.09826
 1489  H   0.83432
 1490  C   1.08718   1.07431   0.98130   0.97200
 1491  H   0.84062
 1492  C   1.08204   0.80331   0.78085   0.81046
 1493  O   1.89296   1.77888   1.64279   1.23682
 1494  N   1.53511   1.26478   1.54060   1.17731
 1495  H   0.69007
 1496  C   1.05805   0.92156   1.08514   1.15570
 1497  H   0.83226
 1498  H   0.85584
 1499  H   0.85027
 1500  H   0.86601
 1501  C   1.10296   0.82982   0.87806   0.75945
 1502  O   1.89044   1.34345   1.83481   1.42336
 1503  N   1.55422   1.37692   1.20575   1.47147
 1504  H   0.69161
 1505  C   1.07914   0.97652   0.84375   1.12477
 1506  H   0.81501
 1507  C   1.05898   0.98048   1.00862   1.06732
 1508  H   0.86944
 1509  C   1.05192   1.15805   1.05399   1.18188
 1510  H   0.83690
 1511  H   0.85327
 1512  H   0.83583
 1513  C   1.04804   1.00400   1.12228   1.09032
 1514  H   0.86254
 1515  H   0.86416
 1516  C   1.04889   1.11935   1.13520   1.13896
 1517  H   0.85386
 1518  H   0.85521
 1519  H   0.85437
 1520  C   1.07241   0.86794   0.76276   0.76284
 1521  O   1.88566   1.52988   1.48946   1.60552
 1522  N   1.54258   1.16435   1.44805   1.40505
 1523  H   0.70100
 1524  C   1.06816   0.88840   1.14588   1.09857
 1525  H   0.85015
 1526  H   0.86159
 1527  H   0.82828
 1528  H   0.86170
 1529  C   1.10306   0.85218   0.75664   0.84829
 1530  O   1.89241   1.78023   1.57457   1.31038
 1531  N   1.53871   1.27079   1.41801   1.30162
 1532  H   0.68206
 1533  C   1.05775   0.87967   1.04727   1.01914
 1534  H   0.82191
 1535  C   1.06042   1.03590   1.11694   1.10595
 1536  H   0.84148
 1537  H   0.84428
 1538  C   1.04475   0.99088   0.96549   1.05993
 1539  H   0.87895
 1540  C   1.05433   1.16088   1.06596   1.18126
 1541  H   0.84356
 1542  H   0.84610
 1543  H   0.85095
 1544  C   1.05256   1.12485   1.16956   1.11027
 1545  H   0.85989
 1546  H   0.84691
 1547  H   0.84028
 1548  C   1.08001   0.74558   0.87744   0.77787
 1549  O   1.88738   1.52419   1.42224   1.71294
 1550  N   1.54025   1.59587   1.20276   1.20217
 1551  H   0.67699
 1552  C   1.06920   1.04566   0.93878   0.93176
 1553  H   0.81956
 1554  C   1.05602   1.16670   1.05759   1.01481
 1555  H   0.83571
 1556  H   0.83234
 1557  C   1.05724   1.12838   1.10518   1.02218
 1558  H   0.83985
 1559  H   0.82553
 1560  C   1.06736   1.16576   0.93398   0.90760
 1561  H   0.82041
 1562  H   0.83854
 1563  N   1.52348   1.14356   1.42319   1.39813
 1564  H   0.66772
 1565  C   0.99025   0.79785   0.80733   0.81347
 1566  N   1.51436   1.10577   1.46129   1.48333
 1567  H   0.64449
 1568  H   0.65933
 1569  N   1.50488   1.23278   1.41710   1.42988
 1570  H   0.66060
 1571  H   0.65739
 1572  C   1.07523   0.86259   0.78996   0.77496
 1573  O   1.88885   1.59448   1.59530   1.52347
 1574  N   1.53736   1.18900   1.25291   1.49287
 1575  H   0.67789
 1576  C   1.08121   0.82483   1.13542   1.04139
 1577  H   0.82580
 1578  C   1.05987   1.15867   1.08158   0.99982
 1579  H   0.84442
 1580  H   0.84917
 1581  C   1.04878   1.08028   0.97299   0.94575
 1582  H   0.87056
 1583  C   1.05538   1.15860   1.15732   1.09154
 1584  H   0.86859
 1585  H   0.86670
 1586  H   0.85352
 1587  C   1.05675   1.16364   1.09136   1.15444
 1588  H   0.84627
 1589  H   0.86995
 1590  H   0.84063
 1591  C   1.07453   0.75885   0.76283   0.73165
 1592  O   1.88865   1.43279   1.84409   1.57949
 1593  O   1.89198   1.52731   1.54892   1.77911

 **********************
 *                    *
 * JOB ENDED NORMALLY *
 *                    *
 **********************



 TOTAL JOB TIME:            52.26 SECONDS

 == MOPAC DONE ==
