 *******************************************************************************
 **                                                                           **
 **                              MOPAC v23.2.2                                **
 **                                                                           **
 *******************************************************************************
 **          Digital Object Identifier (DOI): 10.5281/zenodo.6511958          **
 **    Visit the DOI location for information on how to cite this program.    **
 *******************************************************************************

                              PM7 CALCULATION RESULTS

 *******************************************************************************
 *  CALCULATION DONE: (MAX THREADS = 12)             Tue Jan 27 15:42:39 2026  *
 *  PM7        - The PM7 Hamiltonian to be used
 *
 *
 *
 *                 CHARGE ON SYSTEM = +2
 *
 *
 *
 *  EPS=1      - USE ANDREAS KLAMT'S COSMO IMPLICIT SOLVATION MODEL
 *  1SCF       - DO 1 SCF AND THEN STOP 
 *  T=         - A TIME OF 172800.0 SECONDS REQUESTED
 *  DUMP=N     - RESTART FILE WRITTEN EVERY 7200.0 SECONDS REQUESTED
 *******************************************************************************
PM7 1SCF CHARGE=2 EPS=1


   ATOM   CHEMICAL          X               Y               Z
  NUMBER   SYMBOL      (ANGSTROMS)     (ANGSTROMS)     (ANGSTROMS)

     1       H         71.69100000  *  165.23700000  * -45.36000000  *
     2       C         70.72700000  *  165.64400000  * -45.02500000  *
     3       O         70.67100000  *  166.69300000  * -44.40000000  *
     4       N         69.64800000  *  164.94600000  * -45.35400000  *
     5       H         69.74300000  *  164.08600000  * -45.86500000  *
     6       C         68.31800000  *  165.37700000  * -44.95100000  *
     7       H         68.30400000  *  166.44500000  * -44.75000000  *
     8       C         67.27900000  *  165.08100000  * -46.05800000  *
     9       H         67.27200000  *  164.02200000  * -46.29800000  *
    10       C         65.89200000  *  165.46600000  * -45.59200000  *
    11       H         65.46400000  *  166.22900000  * -46.24500000  *
    12       H         65.23700000  *  164.60600000  * -45.62700000  *
    13       H         65.87600000  *  165.89500000  * -44.58400000  *
    14       C         67.63700000  *  165.85600000  * -47.31700000  *
    15       H         68.59400000  *  165.52900000  * -47.70800000  *
    16       H         66.87900000  *  165.66900000  * -48.07700000  *
    17       H         67.68800000  *  166.92100000  * -47.10100000  *
    18       C         67.91500000  *  164.66400000  * -43.65700000  *
    19       O         67.55300000  *  165.30600000  * -42.67600000  *
    20       N         67.98400000  *  163.33800000  * -43.65800000  *
    21       H         68.28400000  *  162.85200000  * -44.48600000  *
    22       C         67.62300000  *  162.54400000  * -42.48700000  *
    23       H         67.90600000  *  163.07600000  * -41.58100000  *
    24       C         66.12800000  *  162.23500000  * -42.45900000  *
    25       H         65.92600000  *  161.47400000  * -43.20900000  *
    26       H         65.88500000  *  161.80700000  * -41.48800000  *
    27       C         65.21300000  *  163.39800000  * -42.74000000  *
    28       H         65.33100000  *  164.15700000  * -41.96400000  *
    29       H         65.45900000  *  163.81400000  * -43.69700000  *
    30       C         63.76600000  *  162.97200000  * -42.82400000  *
    31       O         63.44700000  *  162.11400000  * -43.67900000  *
    32       O         62.94800000  *  163.49400000  * -42.03400000  *
    33       C         68.34700000  *  161.22200000  * -42.57700000  *
    34       O         68.73000000  *  160.78800000  * -43.66100000  *
    35       N         68.52400000  *  160.57500000  * -41.43500000  *
    36       H         68.03000000  *  160.89100000  * -40.60600000  *
    37       C         69.17300000  *  159.28200000  * -41.42100000  *
    38       H         69.95100000  *  159.22100000  * -42.17800000  *
    39       C         69.75600000  *  159.01000000  * -40.03200000  *
    40       H         70.21900000  *  159.94300000  * -39.71800000  *
    41       H         68.96300000  *  158.79100000  * -39.31600000  *
    42       C         70.79800000  *  157.89600000  * -39.98300000  *
    43       H         70.31100000  *  156.94100000  * -40.17400000  *
    44       H         71.53800000  *  158.07300000  * -40.76900000  *
    45       C         71.50100000  *  157.83200000  * -38.61800000  *
    46       H         70.74900000  *  157.59000000  * -37.86000000  *
    47       H         72.23100000  *  157.01800000  * -38.63800000  *
    48       C         72.18600000  *  159.16200000  * -38.26900000  *
    49       H         72.83200000  *  159.42500000  * -39.10900000  *
    50       H         71.41200000  *  159.93100000  * -38.15600000  *
    51       N         73.00000000  *  159.10500000  * -37.02500000  *
    52       H         73.70000000  *  158.37000000  * -37.07400000  *
    53       H         73.43800000  *  159.98800000  * -36.79300000  *
    54       H         72.39100000  *  158.85400000  * -36.25100000  *
    55       C         68.06200000  *  158.28700000  * -41.74800000  *
    56       O         67.16300000  *  158.08100000  * -40.94600000  *
    57       N         68.04600000  *  157.72800000  * -42.96400000  *
    58       H         68.85100000  *  157.88000000  * -43.55200000  *
    59       C         67.03100000  *  156.74800000  * -43.41100000  *
    60       H         66.05600000  *  157.23800000  * -43.42100000  *
    61       C         67.32500000  *  156.23200000  * -44.84200000  *
    62       H         68.40200000  *  156.12000000  * -44.95800000  *
    63       C         66.67500000  *  154.87300000  * -45.14600000  *
    64       H         65.59900000  *  154.92800000  * -44.97500000  *
    65       H         66.85800000  *  154.60200000  * -46.17700000  *
    66       H         67.10500000  *  154.08100000  * -44.53200000  *
    67       C         66.82400000  *  157.26800000  * -45.86000000  *
    68       H         65.73200000  *  157.26700000  * -45.87900000  *
    69       H         67.14500000  *  158.24300000  * -45.51100000  *
    70       C         67.35200000  *  157.06300000  * -47.28800000  *
    71       H         66.92700000  *  156.16700000  * -47.73300000  *
    72       H         67.07200000  *  157.91400000  * -47.90500000  *
    73       H         68.43600000  *  156.98000000  * -47.27900000  *
    74       C         66.91900000  *  155.58800000  * -42.42300000  *
    75       O         65.82100000  *  155.23300000  * -41.99300000  *
    76       N         68.06100000  *  154.99100000  * -42.08600000  *
    77       H         68.93700000  *  155.34100000  * -42.45800000  *
    78       C         68.09700000  *  153.79800000  * -41.25900000  *
    79       H         67.60400000  *  154.00700000  * -40.30900000  *
    80       H         67.55400000  *  152.99700000  * -41.76300000  *
    81       C         69.50500000  *  153.30600000  * -40.97100000  *
    82       O         70.50700000  *  153.77800000  * -41.51700000  *
    83       N         69.54700000  *  152.31900000  * -40.09000000  *
    84       H         68.66900000  *  151.97100000  * -39.73200000  *
    85       C         70.76100000  *  151.74400000  * -39.53200000  *
    86       H         71.60100000  *  152.41500000  * -39.71100000  *
    87       C         70.56700000  *  151.60800000  * -38.01300000  *
    88       H         69.72500000  *  150.94500000  * -37.80800000  *
    89       H         71.47100000  *  151.18000000  * -37.59900000  *
    90       C         70.33400000  *  152.96700000  * -37.32700000  *
    91       H         71.16800000  *  153.62900000  * -37.57400000  *
    92       H         69.42200000  *  153.42500000  * -37.71700000  *
    93       C         70.20000000  *  152.83800000  * -35.80100000  *
    94       O         69.31500000  *  152.09300000  * -35.32100000  *
    95       O         70.94800000  *  153.52500000  * -35.06800000  *
    96       C         71.03500000  *  150.41700000  * -40.25700000  *
    97       O         70.36100000  *  149.41100000  * -40.02200000  *
    98       N         71.92000000  *  150.46400000  * -41.25800000  *
    99       H         72.50100000  *  151.28700000  * -41.35900000  *
   100       C         71.98800000  *  149.46800000  * -42.33100000  *
   101       H         70.97500000  *  149.16800000  * -42.60300000  *
   102       H         72.43600000  *  149.94400000  * -43.20300000  *
   103       C         72.79000000  *  148.20100000  * -42.02000000  *
   104       O         73.27100000  *  147.97800000  * -40.91100000  *
   105       N         72.96500000  *  147.37000000  * -43.05000000  *
   106       H         72.51800000  *  147.59300000  * -43.92900000  *
   107       C         73.76500000  *  146.12900000  * -43.02200000  *
   108       H         73.43900000  *  145.51900000  * -42.17900000  *
   109       C         73.55500000  *  145.31400000  * -44.30900000  *
   110       H         74.31200000  *  144.53100000  * -44.38000000  *
   111       C         72.17900000  *  144.65900000  * -44.31700000  *
   112       H         71.39500000  *  145.41700000  * -44.33900000  *
   113       H         72.09100000  *  144.01500000  * -45.19100000  *
   114       H         72.08100000  *  144.03800000  * -43.42900000  *
   115       O         73.65400000  *  146.16400000  * -45.42700000  *
   116       H         73.25800000  *  145.69100000  * -46.19400000  *
   117       C         75.26300000  *  146.36100000  * -42.84100000  *
   118       O         75.88300000  *  145.60100000  * -42.10700000  *
   119       N         75.83200000  *  147.39500000  * -43.47800000  *
   120       H         75.23600000  *  147.90400000  * -44.11100000  *
   121       C         77.28500000  *  147.66100000  * -43.53700000  *
   122       H         77.78500000  *  147.08100000  * -42.76100000  *
   123       C         77.83800000  *  147.19400000  * -44.89900000  *
   124       H         77.48500000  *  147.88300000  * -45.66700000  *
   125       H         78.92700000  *  147.25700000  * -44.87900000  *
   126       C         77.47000000  *  145.78000000  * -45.30000000  *
   127       C         77.75300000  *  144.71200000  * -44.42900000  *
   128       H         78.23800000  *  144.89600000  * -43.47800000  *
   129       C         77.38000000  *  143.40500000  * -44.77900000  *
   130       H         77.57700000  *  142.59300000  * -44.09800000  *
   131       C         76.75700000  *  143.15300000  * -46.01800000  *
   132       O         76.47300000  *  141.87500000  * -46.37400000  *
   133       H         77.08300000  *  141.28200000  * -45.90700000  *
   134       C         76.47200000  *  144.22300000  * -46.89100000  *
   135       H         75.97700000  *  144.03700000  * -47.83000000  *
   136       C         76.83500000  *  145.53400000  * -46.53200000  *
   137       H         76.62200000  *  146.35100000  * -47.20600000  *
   138       C         77.67500000  *  149.13200000  * -43.28800000  *
   139       O         78.78900000  *  149.53900000  * -43.61800000  *
   140       N         76.77300000  *  149.94400000  * -42.72900000  *
   141       H         75.88700000  *  149.56300000  * -42.43100000  *
   142       C         76.99700000  *  151.37300000  * -42.48400000  *
   143       H         77.58400000  *  151.49900000  * -41.57600000  *
   144       H         77.56800000  *  151.78400000  * -43.30600000  *
   145       C         75.69400000  *  152.16200000  * -42.33300000  *
   146       O         74.63500000  *  151.56600000  * -42.11500000  *
   147       N         75.75500000  *  153.49500000  * -42.44900000  *
   148       H         76.58800000  *  153.89400000  * -42.85900000  *
   149       C         74.59200000  *  154.32600000  * -42.21200000  *
   150       H         73.82600000  *  153.78000000  * -41.65800000  *
   151       C         74.95900000  *  155.54800000  * -41.37000000  *
   152       H         75.70700000  *  156.13900000  * -41.89300000  *
   153       C         73.73100000  *  156.40900000  * -41.13300000  *
   154       H         72.94300000  *  155.80300000  * -40.68200000  *
   155       H         73.98600000  *  157.21200000  * -40.45000000  *
   156       H         73.36800000  *  156.84900000  * -42.06500000  *
   157       C         75.54500000  *  155.09600000  * -40.05300000  *
   158       H         76.46000000  *  154.52800000  * -40.19800000  *
   159       H         75.77700000  *  155.95300000  * -39.42300000  *
   160       H         74.80500000  *  154.48400000  * -39.53200000  *
   161       C         74.01900000  *  154.79200000  * -43.53700000  *
   162       O         74.76100000  *  155.18400000  * -44.43700000  *
   163       N         72.69700000  *  154.65200000  * -43.67500000  *
   164       H         72.16600000  *  154.32100000  * -42.87600000  *
   165       C         71.91700000  *  155.09700000  * -44.83600000  *
   166       H         72.57900000  *  155.15900000  * -45.69700000  *
   167       C         70.77500000  *  154.11400000  * -45.18200000  *
   168       H         69.93500000  *  154.28200000  * -44.50800000  *
   169       C         70.29900000  *  154.35800000  * -46.61900000  *
   170       H         71.09700000  *  154.12700000  * -47.32500000  *
   171       H         69.43900000  *  153.72300000  * -46.83600000  *
   172       H         70.00600000  *  155.39700000  * -46.75000000  *
   173       C         71.17000000  *  152.63800000  * -45.04600000  *
   174       H         72.07300000  *  152.43800000  * -45.61700000  *
   175       H         71.34000000  *  152.39400000  * -43.99600000  *
   176       H         70.35700000  *  152.00700000  * -45.40800000  *
   177       C         71.34500000  *  156.48300000  * -44.54500000  *
   178       O         70.60600000  *  156.63200000  * -43.56800000  *
   179       N         71.62500000  *  157.49000000  * -45.37400000  *
   180       H         72.23900000  *  157.32200000  * -46.16900000  *
   181       C         71.01800000  *  158.79600000  * -45.21900000  *
   182       H         70.37900000  *  158.84300000  * -44.33800000  *
   183       C         72.10000000  *  159.86100000  * -45.06900000  *
   184       H         72.79900000  *  159.78100000  * -45.90500000  *
   185       H         71.63400000  *  160.84400000  * -45.14300000  *
   186       C         72.87100000  *  159.84300000  * -43.76800000  *
   187       C         72.34700000  *  160.43100000  * -42.61900000  *
   188       H         71.37700000  *  160.90600000  * -42.66800000  *
   189       C         73.06400000  *  160.45200000  * -41.42500000  *
   190       H         72.63300000  *  160.94600000  * -40.56800000  *
   191       C         74.33000000  *  159.87400000  * -41.37100000  *
   192       O         75.04700000  *  159.90100000  * -40.18700000  *
   193       H         74.69700000  *  160.54100000  * -39.56800000  *
   194       C         74.87500000  *  159.27800000  * -42.50300000  *
   195       H         75.78500000  *  158.71900000  * -42.41900000  *
   196       C         74.14000000  *  159.26700000  * -43.69600000  *
   197       H         74.51800000  *  158.73300000  * -44.56500000  *
   198       C         70.16700000  *  159.17400000  * -46.42900000  *
   199       O         70.41800000  *  158.72400000  * -47.55600000  *
   200       N         69.03100000  *  159.83700000  * -46.21300000  *
   201       H         68.84500000  *  160.14500000  * -45.26500000  *
   202       C         68.29400000  *  160.51300000  * -47.28200000  *
   203       H         68.28600000  *  159.91100000  * -48.19300000  *
   204       C         66.84900000  *  160.83800000  * -46.85000000  *
   205       H         66.33100000  *  159.91800000  * -46.59200000  *
   206       H         66.86600000  *  161.47700000  * -45.96500000  *
   207       C         66.03900000  *  161.52400000  * -47.96200000  *
   208       H         66.51300000  *  162.46800000  * -48.23800000  *
   209       H         66.01300000  *  160.87400000  * -48.83800000  *
   210       C         64.60500000  *  161.80200000  * -47.48700000  *
   211       H         64.14600000  *  160.86800000  * -47.15500000  *
   212       H         64.63700000  *  162.49300000  * -46.64300000  *
   213       C         63.76300000  *  162.40500000  * -48.61900000  *
   214       H         64.28600000  *  163.28100000  * -49.01700000  *
   215       H         63.68500000  *  161.66400000  * -49.42300000  *
   216       N         62.40600000  *  162.79700000  * -48.15300000  *
   217       H         62.45400000  *  163.50300000  * -47.43200000  *
   218       H         61.85600000  *  163.18300000  * -48.90900000  *
   219       H         61.89900000  *  162.00900000  * -47.77500000  *
   220       C         69.10000000  *  161.76800000  * -47.51000000  *
   221       O         69.32900000  *  162.50200000  * -46.55300000  *
   222       N         69.55500000  *  162.00600000  * -48.72500000  *
   223       H         69.34400000  *  161.34200000  * -49.46700000  *
   224       C         70.34900000  *  163.18200000  * -49.01700000  *
   225       H         70.22500000  *  163.93500000  * -48.24000000  *
   226       C         71.81400000  *  162.79200000  * -49.07000000  *
   227       H         71.97800000  *  162.06700000  * -49.86400000  *
   228       H         72.42900000  *  163.67700000  * -49.23900000  *
   229       H         72.10500000  *  162.33200000  * -48.12600000  *
   230       C         69.94400000  *  163.83800000  * -50.32200000  *
   231       O         69.22100000  *  163.25100000  * -51.12800000  *
   232       N         70.40700000  *  165.06400000  * -50.52400000  *
   233       H         70.93200000  *  165.53000000  * -49.79600000  *
   234       C         70.10800000  *  165.77900000  * -51.74600000  *
   235       H         69.54100000  *  165.15900000  * -52.44400000  *
   236       H         69.52200000  *  166.69100000  * -51.53000000  *
   237       H         71.05900000  *  166.04700000  * -52.23900000  *
   238       H         68.08600000  *  164.80700000  * -56.55000000  *
   239       C         68.21200000  *  164.39600000  * -55.53600000  *
   240       O         69.28600000  *  164.50800000  * -54.94200000  *
   241       N         67.13500000  *  163.82300000  * -55.01100000  *
   242       H         66.34000000  *  163.66800000  * -55.61500000  *
   243       C         67.13600000  *  163.21200000  * -53.68800000  *
   244       H         67.86300000  *  163.70700000  * -53.05000000  *
   245       C         65.75500000  *  163.32300000  * -53.02900000  *
   246       H         64.97700000  *  163.06900000  * -53.75000000  *
   247       C         65.64800000  *  162.36600000  * -51.85200000  *
   248       H         66.47200000  *  162.51800000  * -51.15200000  *
   249       H         64.69700000  *  162.53800000  * -51.34700000  *
   250       H         65.65200000  *  161.33900000  * -52.20000000  *
   251       C         65.54000000  *  164.75000000  * -52.56600000  *
   252       H         65.62600000  *  165.42400000  * -53.41600000  *
   253       H         64.53500000  *  164.85100000  * -52.15900000  *
   254       H         66.28400000  *  165.00300000  * -51.81000000  *
   255       C         67.52600000  *  161.76000000  * -53.84700000  *
   256       O         66.97900000  *  161.02800000  * -54.68200000  *
   257       N         68.49600000  *  161.34900000  * -53.04800000  *
   258       H         68.91100000  *  161.99700000  * -52.39100000  *
   259       C         69.01100000  *  159.99200000  * -53.10200000  *
   260       H         68.34600000  *  159.34100000  * -53.67900000  *
   261       C         70.37400000  *  159.97400000  * -53.81600000  *
   262       H         70.77500000  *  158.96500000  * -53.87500000  *
   263       C         70.21400000  *  160.50700000  * -55.21300000  *
   264       H         69.95700000  *  161.56600000  * -55.19000000  *
   265       H         71.15100000  *  160.39100000  * -55.75600000  *
   266       H         69.44200000  *  159.95000000  * -55.73600000  *
   267       C         71.37900000  *  160.85000000  * -53.05700000  *
   268       H         71.56500000  *  160.44500000  * -52.06400000  *
   269       H         72.31500000  *  160.84900000  * -53.61300000  *
   270       H         71.03600000  *  161.88400000  * -52.98400000  *
   271       C         69.19200000  *  159.37200000  * -51.72900000  *
   272       O         69.02000000  *  160.03600000  * -50.68600000  *
   273       N         69.38300000  *  158.05900000  * -51.70500000  *
   274       H         69.46100000  *  157.56600000  * -52.59000000  *
   275       C         69.76300000  *  157.32600000  * -50.51300000  *
   276       H         69.48200000  *  157.88800000  * -49.62400000  *
   277       C         69.01400000  *  156.00300000  * -50.47700000  *
   278       H         69.25300000  *  155.43100000  * -51.37100000  *
   279       H         69.30400000  *  155.43500000  * -49.59300000  *
   280       H         67.94300000  *  156.20100000  * -50.44200000  *
   281       C         71.27900000  *  157.14700000  * -50.54200000  *
   282       O         71.81300000  *  156.47300000  * -51.42900000  *
   283       N         71.97000000  *  157.79100000  * -49.60300000  *
   284       H         71.44500000  *  158.28300000  * -48.88900000  *
   285       C         73.41300000  *  157.73400000  * -49.53500000  *
   286       H         73.80300000  *  157.43200000  * -50.50200000  *
   287       C         73.96100000  *  159.11400000  * -49.18200000  *
   288       H         73.49200000  *  159.84000000  * -49.85100000  *
   289       H         73.62800000  *  159.35800000  * -48.16900000  *
   290       C         75.47300000  *  159.31600000  * -49.26600000  *
   291       H         75.96900000  *  158.63700000  * -48.57100000  *
   292       C         75.94900000  *  159.02000000  * -50.68400000  *
   293       H         75.44100000  *  159.71800000  * -51.34800000  *
   294       H         77.02400000  *  159.18800000  * -50.76300000  *
   295       H         75.74700000  *  157.98700000  * -50.96800000  *
   296       C         75.80400000  *  160.74000000  * -48.87900000  *
   297       H         75.43700000  *  160.94600000  * -47.87600000  *
   298       H         76.88200000  *  160.87900000  * -48.92200000  *
   299       H         75.32000000  *  161.42900000  * -49.57600000  *
   300       C         73.82100000  *  156.71600000  * -48.48500000  *
   301       O         73.39600000  *  156.78100000  * -47.33400000  *
   302       N         74.65100000  *  155.75600000  * -48.88600000  *
   303       H         74.89200000  *  155.73600000  * -49.87400000  *
   304       C         75.13000000  *  154.64000000  * -48.06300000  *
   305       H         74.60500000  *  154.62500000  * -47.10600000  *
   306       C         74.83300000  *  153.33600000  * -48.84100000  *
   307       H         74.25600000  *  153.57300000  * -49.73800000  *
   308       H         75.76300000  *  152.87900000  * -49.17700000  *
   309       C         74.02800000  *  152.27900000  * -48.08400000  *
   310       H         73.15500000  *  152.74400000  * -47.62700000  *
   311       H         73.67100000  *  151.56600000  * -48.82800000  *
   312       C         74.86100000  *  151.54100000  * -47.02100000  *
   313       H         75.87600000  *  151.37900000  * -47.38600000  *
   314       H         74.92300000  *  152.16700000  * -46.12700000  *
   315       C         74.23600000  *  150.18400000  * -46.65300000  *
   316       H         74.73400000  *  149.80900000  * -45.75300000  *
   317       H         73.18500000  *  150.35500000  * -46.39700000  *
   318       N         74.35300000  *  149.18400000  * -47.76100000  *
   319       H         75.30900000  *  148.88700000  * -47.91400000  *
   320       H         73.78700000  *  148.34000000  * -47.59000000  *
   321       H         73.99700000  *  149.55000000  * -48.63500000  *
   322       C         76.62300000  *  154.83800000  * -47.79500000  *
   323       O         77.41800000  *  154.65700000  * -48.70900000  *
   324       N         77.01700000  *  155.22600000  * -46.58100000  *
   325       H         76.29800000  *  155.26800000  * -45.86500000  *
   326       C         78.42200000  *  155.28900000  * -46.15900000  *
   327       H         79.06600000  *  155.59300000  * -46.98900000  *
   328       C         78.56700000  *  156.26000000  * -44.97900000  *
   329       H         78.02700000  *  155.87500000  * -44.10900000  *
   330       H         79.62500000  *  156.33900000  * -44.73000000  *
   331       C         78.01500000  *  157.64300000  * -45.34000000  *
   332       H         78.45100000  *  157.95800000  * -46.27300000  *
   333       H         76.93600000  *  157.57500000  * -45.50000000  *
   334       C         78.25100000  *  158.72500000  * -44.27900000  *
   335       H         77.97800000  *  159.68000000  * -44.73200000  *
   336       H         77.56000000  *  158.53300000  * -43.46900000  *
   337       C         79.67700000  *  158.85000000  * -43.70900000  *
   338       H         80.38400000  *  158.36300000  * -44.39700000  *
   339       H         79.95000000  *  159.91100000  * -43.68600000  *
   340       N         79.78800000  *  158.26900000  * -42.33500000  *
   341       H         79.63700000  *  157.26100000  * -42.37000000  *
   342       H         80.69600000  *  158.42600000  * -41.93200000  *
   343       H         79.10400000  *  158.64600000  * -41.70100000  *
   344       C         78.82300000  *  153.89100000  * -45.72900000  *
   345       O         78.09100000  *  153.31500000  * -44.93700000  *
   346       N         79.90700000  *  153.32000000  * -46.24700000  *
   347       H         80.40500000  *  153.76400000  * -47.01000000  *
   348       C         80.34300000  *  152.02200000  * -45.76800000  *
   349       H         79.49500000  *  151.49800000  * -45.35900000  *
   350       C         80.94400000  *  151.18600000  * -46.89500000  *
   351       H         81.78600000  *  151.78200000  * -47.16900000  *
   352       C         81.42400000  *  149.85200000  * -46.34500000  *
   353       H         80.65600000  *  149.35200000  * -45.75200000  *
   354       H         81.67900000  *  149.19900000  * -47.17900000  *
   355       H         82.34500000  *  149.95700000  * -45.76100000  *
   356       C         79.89700000  *  150.97600000  * -47.99700000  *
   357       H         79.60200000  *  151.87000000  * -48.50000000  *
   358       H         80.28300000  *  150.30500000  * -48.75000000  *
   359       C         78.59100000  *  150.36100000  * -47.52600000  *
   360       H         78.17700000  *  150.90100000  * -46.69000000  *
   361       H         77.89400000  *  150.33700000  * -48.36300000  *
   362       H         78.77100000  *  149.33300000  * -47.20900000  *
   363       C         81.33300000  *  152.07100000  * -44.61400000  *
   364       O         82.16700000  *  152.98000000  * -44.51900000  *
   365       N         81.21100000  *  151.07100000  * -43.74300000  *
   366       H         80.50300000  *  150.36100000  * -43.92800000  *
   367       C         82.04400000  *  150.90200000  * -42.55200000  *
   368       H         81.47500000  *  151.18100000  * -41.66300000  *
   369       H         82.35800000  *  149.86100000  * -42.45900000  *
   370       H         82.94700000  *  151.51400000  * -42.62000000  *
   371       H         81.25700000  *  144.04600000  * -57.89900000  *
   372       C         80.50000000  *  144.84100000  * -57.88800000  *
   373       O         79.71500000  *  144.99000000  * -58.82400000  *
   374       N         80.49900000  *  145.60300000  * -56.79700000  *
   375       H         81.28000000  *  145.52500000  * -56.16600000  *
   376       C         79.57000000  *  146.70600000  * -56.61200000  *
   377       H         78.57500000  *  146.34400000  * -56.42300000  *
   378       C         80.00500000  *  147.61000000  * -55.44200000  *
   379       H         80.89800000  *  148.18000000  * -55.68500000  *
   380       C         78.90600000  *  148.60800000  * -55.12500000  *
   381       H         77.92000000  *  148.14100000  * -55.17600000  *
   382       H         79.04500000  *  148.98700000  * -54.11600000  *
   383       H         78.93800000  *  149.43600000  * -55.83300000  *
   384       C         80.32100000  *  146.76200000  * -54.20900000  *
   385       H         81.19200000  *  146.13400000  * -54.40600000  *
   386       H         80.59400000  *  147.42200000  * -53.38900000  *
   387       C         79.18400000  *  145.87900000  * -53.76500000  *
   388       H         78.77800000  *  145.31100000  * -54.59400000  *
   389       H         79.50900000  *  145.12200000  * -53.06500000  *
   390       H         78.38800000  *  146.48300000  * -53.33500000  *
   391       C         79.54300000  *  147.54500000  * -57.87900000  *
   392       O         78.48200000  *  147.77900000  * -58.45100000  *
   393       N         80.72300000  *  147.98900000  * -58.30900000  *
   394       H         81.55800000  *  147.70100000  * -57.81200000  *
   395       C         80.85900000  *  148.80400000  * -59.51100000  *
   396       H         80.33900000  *  149.74600000  * -59.38600000  *
   397       H         81.92800000  *  148.98500000  * -59.72900000  *
   398       H         80.37800000  *  148.32200000  * -60.38100000  *
   399       H         78.96400000  *  146.08700000  * -61.65600000  *
   400       C         77.87300000  *  146.08700000  * -61.51600000  *
   401       O         77.11500000  *  145.89500000  * -62.46400000  *
   402       N         77.44600000  *  146.31800000  * -60.28000000  *
   403       H         78.13400000  *  146.42500000  * -59.54900000  *
   404       C         76.02800000  *  146.35200000  * -59.94500000  *
   405       H         75.53300000  *  145.47600000  * -60.35900000  *
   406       C         75.84100000  *  146.37400000  * -58.43100000  *
   407       H         76.20500000  *  147.30400000  * -58.01800000  *
   408       H         74.76300000  *  146.35700000  * -58.24200000  *
   409       C         76.47200000  *  145.22200000  * -57.65900000  *
   410       H         77.55000000  *  145.23900000  * -57.74900000  *
   411       C         76.08000000  *  145.34100000  * -56.19200000  *
   412       H         74.99900000  *  145.23000000  * -56.07700000  *
   413       H         76.57300000  *  144.55300000  * -55.62900000  *
   414       H         76.38500000  *  146.30900000  * -55.80100000  *
   415       C         75.99600000  *  143.89000000  * -58.23600000  *
   416       H         76.41500000  *  143.73000000  * -59.22900000  *
   417       H         76.32800000  *  143.07800000  * -57.59100000  *
   418       H         74.90500000  *  143.87400000  * -58.30500000  *
   419       C         75.32200000  *  147.55900000  * -60.54800000  *
   420       O         74.09500000  *  147.56800000  * -60.66200000  *
   421       N         76.08400000  *  148.63100000  * -60.82900000  *
   422       H         77.08200000  *  148.53500000  * -60.67700000  *
   423       C         75.60100000  *  149.83300000  * -61.53400000  *
   424       H         74.83700000  *  150.33500000  * -60.94100000  *
   425       H         76.43800000  *  150.53300000  * -61.75900000  *
   426       H         75.13800000  *  149.54900000  * -62.49200000  *
   427       H         62.79000000  *  145.77200000  * -59.27600000  *
   428       C         63.71000000  *  145.72000000  * -58.67500000  *
   429       O         63.77900000  *  145.02200000  * -57.66400000  *
   430       N         64.72400000  *  146.45200000  * -59.11400000  *
   431       H         64.63800000  *  147.05100000  * -59.92700000  *
   432       C         65.97100000  *  146.53500000  * -58.38100000  *
   433       H         65.88400000  *  146.09200000  * -57.38600000  *
   434       C         67.11600000  *  145.87700000  * -59.11400000  *
   435       H         67.33600000  *  146.42600000  * -60.03000000  *
   436       C         68.35100000  *  145.87800000  * -58.21400000  *
   437       H         68.14700000  *  145.31400000  * -57.31800000  *
   438       H         69.21000000  *  145.44500000  * -58.72400000  *
   439       H         68.64100000  *  146.89000000  * -57.94500000  *
   440       C         66.72800000  *  144.44400000  * -59.47800000  *
   441       H         66.54900000  *  143.87300000  * -58.56400000  *
   442       H         65.81500000  *  144.42400000  * -60.06800000  *
   443       C         67.77400000  *  143.72700000  * -60.29600000  *
   444       H         68.68300000  *  143.57700000  * -59.72200000  *
   445       H         67.37700000  *  142.75300000  * -60.59800000  *
   446       H         68.02300000  *  144.31300000  * -61.18000000  *
   447       C         66.29500000  *  148.01000000  * -58.22000000  *
   448       O         66.21200000  *  148.78000000  * -59.18400000  *
   449       N         66.54900000  *  148.43900000  * -56.98200000  *
   450       H         66.61900000  *  147.75700000  * -56.23100000  *
   451       C         66.88800000  *  149.83600000  * -56.68400000  *
   452       H         66.07200000  *  150.48000000  * -57.01200000  *
   453       C         67.09200000  *  150.04100000  * -55.17800000  *
   454       H         67.88900000  *  149.38200000  * -54.82900000  *
   455       C         67.46800000  *  151.48500000  * -54.83600000  *
   456       H         66.64400000  *  152.16000000  * -55.06500000  *
   457       H         67.69800000  *  151.53700000  * -53.77500000  *
   458       H         68.34800000  *  151.80000000  * -55.39100000  *
   459       C         65.81400000  *  149.71900000  * -54.40100000  *
   460       H         65.53500000  *  148.67700000  * -54.52500000  *
   461       H         65.99900000  *  149.89400000  * -53.34800000  *
   462       H         64.99700000  *  150.35200000  * -54.74100000  *
   463       C         68.15000000  *  150.21400000  * -57.45500000  *
   464       O         69.17800000  *  149.54200000  * -57.33300000  *
   465       N         68.08000000  *  151.28300000  * -58.25100000  *
   466       H         67.22500000  *  151.80400000  * -58.24500000  *
   467       C         69.18900000  *  151.69800000  * -59.08000000  *
   468       H         69.52500000  *  150.81900000  * -59.63900000  *
   469       C         68.73700000  *  152.76800000  * -60.08300000  *
   470       H         67.83400000  *  152.41100000  * -60.57900000  *
   471       H         68.47700000  *  153.68100000  * -59.53700000  *
   472       C         69.79100000  *  153.06900000  * -61.13100000  *
   473       H         70.72100000  *  153.35000000  * -60.64200000  *
   474       H         69.97400000  *  152.16800000  * -61.71600000  *
   475       C         69.35100000  *  154.17900000  * -62.08100000  *
   476       H         68.50200000  *  153.81400000  * -62.66100000  *
   477       H         69.02300000  *  155.05600000  * -61.52200000  *
   478       C         70.49800000  *  154.55900000  * -63.02400000  *
   479       H         71.33900000  *  154.89000000  * -62.40800000  *
   480       H         70.81900000  *  153.66100000  * -63.56600000  *
   481       N         70.11800000  *  155.62600000  * -63.99700000  *
   482       H         69.74700000  *  156.41600000  * -63.48300000  *
   483       H         70.92600000  *  155.93300000  * -64.52500000  *
   484       H         69.41500000  *  155.27800000  * -64.63600000  *
   485       C         70.36000000  *  152.21400000  * -58.25300000  *
   486       O         70.19400000  *  153.07400000  * -57.38700000  *
   487       N         71.53700000  *  151.64500000  * -58.50700000  *
   488       H         71.59600000  *  150.90400000  * -59.18600000  *
   489       C         72.75000000  *  152.07400000  * -57.83600000  *
   490       H         72.53800000  *  152.52600000  * -56.87100000  *
   491       C         73.72700000  *  150.91100000  * -57.67000000  *
   492       H         73.31500000  *  150.22100000  * -56.93700000  *
   493       H         73.77900000  *  150.36900000  * -58.62000000  *
   494       C         75.16700000  *  151.27300000  * -57.28800000  *
   495       H         75.65500000  *  151.80300000  * -58.10000000  *
   496       C         75.18300000  *  152.16500000  * -56.05900000  *
   497       H         74.60800000  *  151.72100000  * -55.25200000  *
   498       H         76.21000000  *  152.29600000  * -55.73500000  *
   499       H         74.78900000  *  153.14000000  * -56.31200000  *
   500       C         75.93300000  *  149.99400000  * -57.01300000  *
   501       H         75.98300000  *  149.42100000  * -57.93300000  *
   502       H         76.94600000  *  150.24200000  * -56.71200000  *
   503       H         75.43500000  *  149.41000000  * -56.23200000  *
   504       C         73.31900000  *  153.11300000  * -58.79500000  *
   505       O         73.76900000  *  152.77900000  * -59.89700000  *
   506       N         73.26700000  *  154.36900000  * -58.37800000  *
   507       H         72.92600000  *  154.57000000  * -57.44900000  *
   508       C         73.73400000  *  155.46600000  * -59.19700000  *
   509       H         73.47500000  *  155.26500000  * -60.23600000  *
   510       C         73.02500000  *  156.74200000  * -58.76000000  *
   511       H         73.45000000  *  157.06300000  * -57.80900000  *
   512       H         73.23600000  *  157.53300000  * -59.48700000  *
   513       C         71.51300000  *  156.60300000  * -58.58700000  *
   514       H         71.27400000  *  155.80900000  * -57.88500000  *
   515       C         70.97400000  *  157.88000000  * -58.01900000  *
   516       H         71.37000000  *  158.74600000  * -58.56000000  *
   517       H         69.88800000  *  157.89100000  * -58.09300000  *
   518       H         71.22100000  *  157.96000000  * -56.96600000  *
   519       C         70.85100000  *  156.29000000  * -59.92300000  *
   520       H         71.28300000  *  155.39700000  * -60.34200000  *
   521       H         69.78900000  *  156.14400000  * -59.75100000  *
   522       H         71.00300000  *  157.12700000  * -60.60700000  *
   523       C         75.24500000  *  155.67800000  * -59.15800000  *
   524       O         75.83900000  *  156.04700000  * -60.17600000  *
   525       N         75.86200000  *  155.44600000  * -57.99600000  *
   526       H         75.29500000  *  155.17900000  * -57.20400000  *
   527       C         77.30800000  *  155.64700000  * -57.82900000  *
   528       H         77.80800000  *  155.40400000  * -58.76600000  *
   529       C         77.60000000  *  157.11700000  * -57.51900000  *
   530       H         76.91700000  *  157.54400000  * -56.80300000  *
   531       H         78.58200000  *  157.17000000  * -57.04800000  *
   532       C         77.65600000  *  157.97500000  * -58.75600000  *
   533       O         78.67800000  *  157.91700000  * -59.48300000  *
   534       O         76.67400000  *  158.70400000  * -59.00000000  *
   535       C         77.97900000  *  154.81700000  * -56.73400000  *
   536       O         77.37100000  *  154.52100000  * -55.70400000  *
   537       N         79.24700000  *  154.47700000  * -56.96600000  *
   538       H         79.69800000  *  154.82400000  * -57.79800000  *
   539       C         80.06100000  *  153.73800000  * -56.00300000  *
   540       H         79.55400000  *  153.69900000  * -55.05200000  *
   541       C         80.36600000  *  152.29800000  * -56.50400000  *
   542       H         79.42700000  *  151.75200000  * -56.56200000  *
   543       C         80.98100000  *  152.34300000  * -57.88400000  *
   544       H         82.06600000  *  152.43300000  * -57.82100000  *
   545       H         80.74600000  *  151.41400000  * -58.37900000  *
   546       H         80.59600000  *  153.14500000  * -58.51000000  *
   547       C         81.29900000  *  151.58800000  * -55.53900000  *
   548       H         80.81100000  *  151.54900000  * -54.57200000  *
   549       H         81.47300000  *  150.57200000  * -55.87800000  *
   550       H         82.25900000  *  152.09200000  * -55.44900000  *
   551       C         81.36500000  *  154.53600000  * -55.81000000  *
   552       O         82.27000000  *  154.48900000  * -56.64700000  *
   553       N         81.45200000  *  155.28200000  * -54.71000000  *
   554       H         80.67600000  *  155.30400000  * -54.06400000  *
   555       C         82.62100000  *  156.11100000  * -54.44300000  *
   556       H         83.20500000  *  156.21800000  * -55.35800000  *
   557       H         82.32200000  *  157.12800000  * -54.14500000  *
   558       H         83.29700000  *  155.73900000  * -53.65600000  *
   559       H         84.58000000  *  155.17100000  * -47.07300000  *
   560       C         84.22500000  *  154.98400000  * -48.09100000  *
   561       O         84.63900000  *  155.65900000  * -49.04200000  *
   562       N         83.35800000  *  153.99100000  * -48.22200000  *
   563       H         83.13600000  *  153.42800000  * -47.41700000  *
   564       C         82.77600000  *  153.65100000  * -49.50600000  *
   565       H         83.37000000  *  154.04700000  * -50.31700000  *
   566       C         82.71900000  *  152.14000000  * -49.66000000  *
   567       H         83.74000000  *  151.87500000  * -49.95700000  *
   568       H         82.64400000  *  151.54600000  * -48.78400000  *
   569       C         81.82600000  *  151.61900000  * -50.77900000  *
   570       H         80.79100000  *  151.88400000  * -50.58700000  *
   571       C         82.25800000  *  152.23100000  * -52.09200000  *
   572       H         83.31100000  *  152.49100000  * -52.08900000  *
   573       H         82.09300000  *  151.51300000  * -52.88400000  *
   574       H         81.65400000  *  153.10900000  * -52.31200000  *
   575       C         81.89900000  *  150.09400000  * -50.82200000  *
   576       H         81.91300000  *  149.66400000  * -49.82700000  *
   577       H         81.05200000  *  149.70600000  * -51.39100000  *
   578       H         82.82500000  *  149.80300000  * -51.32100000  *
   579       C         81.36700000  *  154.23200000  * -49.54800000  *
   580       O         80.51800000  *  153.85700000  * -48.74500000  *
   581       N         81.13100000  *  155.16100000  * -50.46700000  *
   582       H         81.84500000  *  155.34800000  * -51.16200000  *
   583       C         79.82200000  *  155.78100000  * -50.60800000  *
   584       H         79.27400000  *  155.67000000  * -49.68700000  *
   585       C         79.96700000  *  157.27800000  * -50.86800000  *
   586       H         80.42300000  *  157.50400000  * -51.79700000  *
   587       H         78.95400000  *  157.66400000  * -50.98900000  *
   588       C         80.57600000  *  158.04300000  * -49.72300000  *
   589       C         79.79300000  *  158.48000000  * -48.65600000  *
   590       H         78.73500000  *  158.25400000  * -48.66900000  *
   591       C         80.35600000  *  159.18600000  * -47.59400000  *
   592       H         79.75300000  *  159.56200000  * -46.79700000  *
   593       C         81.71600000  *  159.45200000  * -47.58700000  *
   594       O         82.27600000  *  160.12500000  * -46.52100000  *
   595       H         83.20600000  *  160.30800000  * -46.74500000  *
   596       C         82.51400000  *  159.02600000  * -48.63700000  *
   597       H         83.58200000  *  159.23300000  * -48.65000000  *
   598       C         81.94100000  *  158.32800000  * -49.69800000  *
   599       H         82.57400000  *  157.98100000  * -50.50200000  *
   600       C         79.04800000  *  155.15800000  * -51.76500000  *
   601       O         79.54400000  *  155.08000000  * -52.88800000  *
   602       N         77.86400000  *  154.61900000  * -51.49500000  *
   603       H         77.53700000  *  154.63800000  * -50.53500000  *
   604       C         76.98200000  *  154.05500000  * -52.51600000  *
   605       H         77.50900000  *  154.00900000  * -53.46300000  *
   606       C         76.54800000  *  152.62000000  * -52.17200000  *
   607       H         75.85000000  *  152.65700000  * -51.34300000  *
   608       H         76.00900000  *  152.22100000  * -53.03300000  *
   609       C         77.68300000  *  151.64800000  * -51.81100000  *
   610       H         78.19100000  *  151.98900000  * -50.90900000  *
   611       C         77.11500000  *  150.25400000  * -51.54700000  *
   612       H         76.62400000  *  149.87200000  * -52.44400000  *
   613       H         77.92100000  *  149.57500000  * -51.26500000  *
   614       H         76.39500000  *  150.29900000  * -50.73300000  *
   615       C         78.69600000  *  151.53300000  * -52.94300000  *
   616       H         79.21300000  *  152.48100000  * -53.06800000  *
   617       H         79.43400000  *  150.77400000  * -52.69500000  *
   618       H         78.19000000  *  151.27000000  * -53.87200000  *
   619       C         75.78600000  *  154.98400000  * -52.67300000  *
   620       O         75.10200000  *  155.25600000  * -51.68300000  *
   621       N         75.54700000  *  155.50800000  * -53.87800000  *
   622       H         76.14500000  *  155.25500000  * -54.66000000  *
   623       C         74.40900000  *  156.37500000  * -54.09400000  *
   624       H         73.97600000  *  156.70200000  * -53.15000000  *
   625       C         74.83400000  *  157.63700000  * -54.81800000  *
   626       H         75.25500000  *  157.34500000  * -55.76600000  *
   627       C         73.61400000  *  158.52200000  * -55.10900000  *
   628       H         73.11700000  *  158.76900000  * -54.17500000  *
   629       H         73.94100000  *  159.43100000  * -55.61500000  *
   630       H         72.91600000  *  158.00900000  * -55.76200000  *
   631       C         75.84000000  *  158.38200000  * -53.94900000  *
   632       H         75.28100000  *  158.78400000  * -53.13000000  *
   633       H         76.65600000  *  157.75800000  * -53.60500000  *
   634       H         76.26100000  *  159.20400000  * -54.52500000  *
   635       C         73.31400000  *  155.64400000  * -54.85300000  *
   636       O         73.49500000  *  155.22100000  * -55.99400000  *
   637       N         72.20700000  *  155.38600000  * -54.16300000  *
   638       H         72.13600000  *  155.73900000  * -53.21300000  *
   639       C         71.03000000  *  154.72100000  * -54.71100000  *
   640       H         71.28300000  *  154.26200000  * -55.66200000  *
   641       C         70.56200000  *  153.62100000  * -53.75400000  *
   642       H         70.41200000  *  154.05200000  * -52.76600000  *
   643       H         69.59400000  *  153.26300000  * -54.09800000  *
   644       C         71.49200000  *  152.42800000  * -53.63300000  *
   645       C         71.35600000  *  151.33500000  * -54.51200000  *
   646       H         70.61600000  *  151.35800000  * -55.29800000  *
   647       C         72.17300000  *  150.20100000  * -54.36500000  *
   648       H         72.05600000  *  149.35900000  * -55.03500000  *
   649       C         73.13800000  *  150.15700000  * -53.34400000  *
   650       H         73.76600000  *  149.28300000  * -53.23000000  *
   651       C         73.28200000  *  151.24900000  * -52.47100000  *
   652       H         74.01500000  *  151.20800000  * -51.68000000  *
   653       C         72.46500000  *  152.38500000  * -52.61600000  *
   654       H         72.57600000  *  153.22000000  * -51.93700000  *
   655       C         69.90600000  *  155.73300000  * -54.95100000  *
   656       O         69.76500000  *  156.70100000  * -54.20300000  *
   657       N         69.08400000  *  155.51600000  * -55.98000000  *
   658       H         69.24100000  *  154.69400000  * -56.55400000  *
   659       C         67.82000000  *  156.25500000  * -56.12800000  *
   660       H         68.06200000  *  157.30400000  * -56.30400000  *
   661       C         67.03300000  *  155.74600000  * -57.34900000  *
   662       H         66.17400000  *  156.40300000  * -57.48800000  *
   663       H         67.66700000  *  155.81500000  * -58.23400000  *
   664       C         66.53800000  *  154.29900000  * -57.19500000  *
   665       H         67.40100000  *  153.64500000  * -57.06700000  *
   666       H         65.92200000  *  154.22200000  * -56.30300000  *
   667       C         65.68700000  *  153.80000000  * -58.36500000  *
   668       O         65.17600000  *  154.61100000  * -59.17100000  *
   669       O         65.48800000  *  152.56700000  * -58.44300000  *
   670       C         66.98100000  *  156.17300000  * -54.83500000  *
   671       O         66.91600000  *  155.11900000  * -54.20000000  *
   672       N         66.35100000  *  157.26900000  * -54.41100000  *
   673       H         66.38800000  *  158.11500000  * -54.96400000  *
   674       C         65.49800000  *  157.25500000  * -53.22000000  *
   675       H         65.97500000  *  156.63700000  * -52.45700000  *
   676       C         65.38500000  *  158.67100000  * -52.64900000  *
   677       H         66.38400000  *  159.02900000  * -52.40500000  *
   678       H         64.96900000  *  159.32900000  * -53.41300000  *
   679       C         64.53600000  *  158.76400000  * -51.39600000  *
   680       C         63.23500000  *  159.29800000  * -51.45800000  *
   681       H         62.83300000  *  159.64700000  * -52.40000000  *
   682       C         62.44900000  *  159.37700000  * -50.29500000  *
   683       H         61.45000000  *  159.78700000  * -50.34700000  *
   684       C         62.96000000  *  158.91900000  * -49.06800000  *
   685       H         62.35400000  *  158.97700000  * -48.17300000  *
   686       C         64.25900000  *  158.38600000  * -49.00400000  *
   687       H         64.65100000  *  158.03700000  * -48.05900000  *
   688       C         65.04700000  *  158.30800000  * -50.16600000  *
   689       H         66.04500000  *  157.89700000  * -50.11500000  *
   690       C         64.11400000  *  156.65500000  * -53.51300000  *
   691       O         63.46400000  *  157.02400000  * -54.49500000  *
   692       N         63.64200000  *  155.77700000  * -52.62400000  *
   693       H         64.25100000  *  155.50900000  * -51.86000000  *
   694       C         62.24700000  *  155.33100000  * -52.54100000  *
   695       H         61.64200000  *  155.87600000  * -53.26800000  *
   696       C         62.12500000  *  153.82600000  * -52.83600000  *
   697       H         62.86200000  *  153.28300000  * -52.24800000  *
   698       H         61.13600000  *  153.51100000  * -52.50000000  *
   699       C         62.26400000  *  153.46300000  * -54.32800000  *
   700       H         61.89400000  *  154.28500000  * -54.94100000  *
   701       C         63.71400000  *  153.16200000  * -54.70800000  *
   702       H         64.10200000  *  152.35900000  * -54.08500000  *
   703       H         63.77400000  *  152.87900000  * -55.75800000  *
   704       H         64.32700000  *  154.04900000  * -54.55800000  *
   705       C         61.43300000  *  152.22000000  * -54.65900000  *
   706       H         60.38900000  *  152.39100000  * -54.39500000  *
   707       H         61.48400000  *  152.01800000  * -55.72800000  *
   708       H         61.80400000  *  151.35600000  * -54.11000000  *
   709       C         61.69000000  *  155.66600000  * -51.15200000  *
   710       O         62.41500000  *  155.64000000  * -50.16000000  *
   711       N         60.41400000  *  156.03600000  * -51.09000000  *
   712       H         59.88700000  *  156.06000000  * -51.95500000  *
   713       C         59.82000000  *  156.73400000  * -49.94400000  *
   714       H         60.51500000  *  157.51200000  * -49.62900000  *
   715       C         58.53600000  *  157.43400000  * -50.41500000  *
   716       H         57.77400000  *  156.67700000  * -50.60400000  *
   717       H         58.18500000  *  158.08500000  * -49.61500000  *
   718       C         58.69700000  *  158.26100000  * -51.67100000  *
   719       N         58.75600000  *  157.75500000  * -52.97500000  *
   720       C         58.92500000  *  158.82000000  * -53.77700000  *
   721       H         59.01000000  *  158.77900000  * -54.85700000  *
   722       N         58.97700000  *  159.94900000  * -53.04900000  *
   723       H         59.09700000  *  160.88300000  * -53.43000000  *
   724       C         58.83800000  *  159.61700000  * -51.71900000  *
   725       H         58.84000000  *  160.29400000  * -50.87300000  *
   726       C         59.55700000  *  155.87100000  * -48.69600000  *
   727       O         59.42800000  *  156.42500000  * -47.60400000  *
   728       N         59.47200000  *  154.54200000  * -48.82900000  *
   729       H         59.60400000  *  154.14400000  * -49.75000000  *
   730       C         59.09700000  *  153.61900000  * -47.74500000  *
   731       H         59.55400000  *  153.96600000  * -46.81800000  *
   732       C         57.56300000  *  153.66300000  * -47.57000000  *
   733       H         57.28400000  *  154.67900000  * -47.28500000  *
   734       H         57.07800000  *  153.43400000  * -48.52000000  *
   735       C         57.03400000  *  152.69600000  * -46.50000000  *
   736       H         56.91100000  *  151.70900000  * -46.94300000  *
   737       H         57.75800000  *  152.62400000  * -45.68900000  *
   738       C         55.71300000  *  153.15200000  * -45.89300000  *
   739       O         55.66700000  *  153.85900000  * -44.90000000  *
   740       N         54.58500000  *  152.77100000  * -46.45500000  *
   741       H         53.73300000  *  153.09500000  * -46.02400000  *
   742       H         54.59300000  *  152.21800000  * -47.29300000  *
   743       C         59.61000000  *  152.18800000  * -47.99600000  *
   744       O         59.68300000  *  151.74300000  * -49.14400000  *
   745       N         59.95000000  *  151.45700000  * -46.92700000  *
   746       H         59.85200000  *  151.88100000  * -46.00400000  *
   747       C         60.27900000  *  150.02400000  * -47.00000000  *
   748       H         60.57400000  *  149.80600000  * -48.02300000  *
   749       C         61.50800000  *  149.69100000  * -46.13600000  *
   750       H         61.83500000  *  148.68400000  * -46.40000000  *
   751       H         62.31600000  *  150.37300000  * -46.40600000  *
   752       C         61.28700000  *  149.73800000  * -44.61900000  *
   753       O         60.31100000  *  149.12900000  * -44.13200000  *
   754       O         62.14000000  *  150.33100000  * -43.91800000  *
   755       C         59.07300000  *  149.10800000  * -46.70200000  *
   756       O         58.03900000  *  149.54100000  * -46.17600000  *
   757       N         59.19100000  *  147.81900000  * -47.04800000  *
   758       H         60.03800000  *  147.50900000  * -47.52500000  *
   759       C         58.10100000  *  146.88000000  * -46.84100000  *
   760       H         57.21800000  *  147.32500000  * -47.29300000  *
   761       C         58.41200000  *  145.57700000  * -47.59200000  *
   762       H         58.61300000  *  145.80400000  * -48.64400000  *
   763       H         59.28800000  *  145.12100000  * -47.15800000  *
   764       C         57.28700000  *  144.52700000  * -47.51900000  *
   765       H         57.05600000  *  144.28000000  * -46.48700000  *
   766       C         56.00700000  *  145.04400000  * -48.19600000  *
   767       H         56.23500000  *  145.37800000  * -49.20200000  *
   768       H         55.26800000  *  144.24500000  * -48.23100000  *
   769       H         55.59500000  *  145.87000000  * -47.62900000  *
   770       C         57.76800000  *  143.24900000  * -48.17500000  *
   771       H         58.61500000  *  142.85400000  * -47.62000000  *
   772       H         56.97300000  *  142.50400000  * -48.17100000  *
   773       H         58.06400000  *  143.44500000  * -49.20700000  *
   774       C         57.76400000  *  146.61300000  * -45.36900000  *
   775       O         56.60900000  *  146.37600000  * -45.03000000  *
   776       N         58.75700000  *  146.67700000  * -44.48800000  *
   777       H         59.64000000  *  147.08600000  * -44.79000000  *
   778       C         58.49100000  *  146.46700000  * -43.07300000  *
   779       H         57.97900000  *  145.55100000  * -42.87200000  *
   780       C         59.78200000  *  146.47800000  * -42.25400000  *
   781       H         60.44800000  *  145.70000000  * -42.62000000  *
   782       H         60.28600000  *  147.44000000  * -42.35600000  *
   783       C         59.49200000  *  146.22900000  * -40.76500000  *
   784       H         58.94200000  *  147.08300000  * -40.37400000  *
   785       H         58.87100000  *  145.33200000  * -40.67600000  *
   786       C         60.74500000  *  146.03800000  * -39.93500000  *
   787       H         61.36100000  *  145.25900000  * -40.37900000  *
   788       H         61.30800000  *  146.97100000  * -39.90700000  *
   789       C         60.37600000  *  145.60700000  * -38.51700000  *
   790       H         59.98500000  *  144.58900000  * -38.53700000  *
   791       H         61.27900000  *  145.61300000  * -37.90300000  *
   792       N         59.34600000  *  146.53100000  * -37.94700000  *
   793       H         58.44600000  *  146.48100000  * -38.44300000  *
   794       H         59.09000000  *  146.27800000  * -37.00400000  *
   795       H         59.61300000  *  147.50600000  * -37.97800000  *
   796       C         57.55800000  *  147.53800000  * -42.51200000  *
   797       O         56.61300000  *  147.23400000  * -41.78300000  *
   798       N         57.83600000  *  148.81600000  * -42.79700000  *
   799       H         58.66400000  *  149.01300000  * -43.36400000  *
   800       C         56.99500000  *  149.92300000  * -42.32000000  *
   801       H         56.87900000  *  149.82700000  * -41.23900000  *
   802       C         57.66000000  *  151.27900000  * -42.60600000  *
   803       H         58.65600000  *  151.28400000  * -42.16200000  *
   804       H         57.75600000  *  151.42300000  * -43.68300000  *
   805       C         56.83400000  *  152.42700000  * -41.99700000  *
   806       H         55.87100000  *  152.48500000  * -42.50400000  *
   807       H         56.65600000  *  152.21600000  * -40.94100000  *
   808       C         57.53400000  *  153.78700000  * -42.11300000  *
   809       H         58.46200000  *  153.76000000  * -41.54000000  *
   810       H         57.75800000  *  153.99200000  * -43.16100000  *
   811       C         56.61200000  *  154.88100000  * -41.55500000  *
   812       H         55.69100000  *  154.89500000  * -42.14700000  *
   813       H         56.34300000  *  154.62000000  * -40.52700000  *
   814       N         57.25400000  *  156.22000000  * -41.58300000  *
   815       H         57.48700000  *  156.49700000  * -42.52500000  *
   816       H         56.63700000  *  156.92300000  * -41.20200000  *
   817       H         58.10100000  *  156.23200000  * -41.03300000  *
   818       C         55.59600000  *  149.81900000  * -42.91900000  *
   819       O         54.61300000  *  150.04400000  * -42.21900000  *
   820       N         55.49500000  *  149.42600000  * -44.18900000  *
   821       H         56.35000000  *  149.26300000  * -44.71300000  *
   822       C         54.20500000  *  149.26000000  * -44.85200000  *
   823       H         53.62600000  *  150.17500000  * -44.72500000  *
   824       C         54.41000000  *  148.98800000  * -46.34000000  *
   825       H         54.98900000  *  149.80200000  * -46.77700000  *
   826       H         55.00200000  *  148.07700000  * -46.45200000  *
   827       C         53.12600000  *  148.85300000  * -47.10800000  *
   828       C         52.23100000  *  149.92200000  * -47.18600000  *
   829       H         52.46300000  *  150.85600000  * -46.69900000  *
   830       C         51.01500000  *  149.79500000  * -47.88400000  *
   831       H         50.32500000  *  150.62800000  * -47.91800000  *
   832       C         50.69700000  *  148.60300000  * -48.50200000  *
   833       H         49.75200000  *  148.50200000  * -49.02000000  *
   834       C         51.58700000  *  147.52100000  * -48.43200000  *
   835       H         51.33500000  *  146.58300000  * -48.91200000  *
   836       C         52.79500000  *  147.65400000  * -47.73300000  *
   837       H         53.46700000  *  146.81000000  * -47.67200000  *
   838       C         53.37400000  *  148.12200000  * -44.22700000  *
   839       O         52.16900000  *  148.28300000  * -44.00900000  *
   840       N         54.01600000  *  146.98100000  * -43.96600000  *
   841       H         55.00900000  *  146.90600000  * -44.17900000  *
   842       C         53.33800000  *  145.83600000  * -43.34100000  *
   843       H         52.47600000  *  145.52800000  * -43.93400000  *
   844       C         54.29200000  *  144.65000000  * -43.17000000  *
   845       H         55.15800000  *  145.02700000  * -42.63600000  *
   846       H         53.80700000  *  143.89200000  * -42.54700000  *
   847       C         54.73100000  *  144.00400000  * -44.46100000  *
   848       H         53.84700000  *  143.61400000  * -44.95900000  *
   849       H         55.19200000  *  144.69400000  * -45.15000000  *
   850       S         55.79700000  *  142.58100000  * -44.15400000  *
   851       C         57.05400000  *  143.29200000  * -43.18800000  *
   852       H         56.67800000  *  143.65800000  * -42.23500000  *
   853       H         57.80700000  *  142.53400000  * -42.98200000  *
   854       H         57.44300000  *  144.07900000  * -43.80900000  *
   855       C         52.84400000  *  146.26000000  * -41.95900000  *
   856       O         51.68200000  *  146.03200000  * -41.61400000  *
   857       N         53.72600000  *  146.88400000  * -41.17900000  *
   858       H         54.70100000  *  146.95700000  * -41.45300000  *
   859       C         53.34300000  *  147.35100000  * -39.84600000  *
   860       H         53.03400000  *  146.49700000  * -39.23800000  *
   861       C         54.50500000  *  148.07700000  * -39.15700000  *
   862       H         54.94100000  *  148.81500000  * -39.83000000  *
   863       H         54.12400000  *  148.60600000  * -38.28400000  *
   864       C         55.58400000  *  147.11500000  * -38.68500000  *
   865       O         55.26200000  *  145.90900000  * -38.57600000  *
   866       O         56.73300000  *  147.55200000  * -38.41700000  *
   867       C         52.15000000  *  148.27900000  * -39.96300000  *
   868       O         51.20300000  *  148.18000000  * -39.18700000  *
   869       N         52.18300000  *  149.16200000  * -40.95500000  *
   870       H         53.01600000  *  149.23700000  * -41.51800000  *
   871       C         51.08600000  *  150.10000000  * -41.17300000  *
   872       H         50.93100000  *  150.67400000  * -40.25800000  *
   873       C         51.42800000  *  151.06800000  * -42.31500000  *
   874       H         51.45500000  *  150.53900000  * -43.26600000  *
   875       H         50.66000000  *  151.83800000  * -42.36800000  *
   876       H         52.39300000  *  151.53600000  * -42.12800000  *
   877       C         49.78900000  *  149.37000000  * -41.49900000  *
   878       O         48.71100000  *  149.83600000  * -41.15600000  *
   879       N         49.90500000  *  148.22900000  * -42.16400000  *
   880       H         50.83800000  *  147.88500000  * -42.38200000  *
   881       C         48.74000000  *  147.45400000  * -42.57500000  *
   882       H         47.85700000  *  148.08600000  * -42.62800000  *
   883       H         48.90600000  *  147.02300000  * -43.58600000  *
   884       H         48.52600000  *  146.61900000  * -41.88800000  *
   885       H         72.54500000  *  137.05800000  * -55.15200000  *
   886       C         72.38600000  *  137.90500000  * -54.47400000  *
   887       O         73.28300000  *  138.71900000  * -54.28600000  *
   888       N         71.20100000  *  138.01500000  * -53.89800000  *
   889       H         70.47300000  *  137.31400000  * -54.05700000  *
   890       C         70.96800000  *  139.10000000  * -52.94900000  *
   891       H         71.50000000  *  140.00600000  * -53.22900000  *
   892       C         69.47700000  *  139.40500000  * -52.82500000  *
   893       H         69.09300000  *  139.71900000  * -53.79200000  *
   894       H         68.93000000  *  138.50600000  * -52.53300000  *
   895       C         69.17800000  *  140.45400000  * -51.81200000  *
   896       N         69.23000000  *  140.42300000  * -50.45900000  *
   897       C         68.94700000  *  141.69100000  * -50.01400000  *
   898       H         68.96900000  *  142.01200000  * -48.98400000  *
   899       N         68.72400000  *  142.47200000  * -51.05500000  *
   900       H         68.47200000  *  143.44500000  * -51.00700000  *
   901       C         68.85400000  *  141.75000000  * -52.15500000  *
   902       H         68.77100000  *  142.12600000  * -53.16500000  *
   903       C         71.52100000  *  138.65700000  * -51.58300000  *
   904       O         72.28000000  *  139.38000000  * -50.94700000  *
   905       N         71.11400000  *  137.47100000  * -51.14500000  *
   906       H         70.37100000  *  137.01600000  * -51.66500000  *
   907       C         71.55500000  *  136.88000000  * -49.87700000  *
   908       H         71.18200000  *  135.84900000  * -49.87900000  *
   909       C         73.07600000  *  136.85300000  * -49.83700000  *
   910       H         73.53100000  *  137.83300000  * -49.86900000  *
   911       H         73.36600000  *  136.47900000  * -48.85100000  *
   912       C         73.64700000  *  135.85900000  * -50.81700000  *
   913       H         73.29800000  *  134.87100000  * -50.67200000  *
   914       H         73.21600000  *  136.10500000  * -51.78700000  *
   915       C         75.11700000  *  136.08400000  * -50.99900000  *
   916       H         75.61200000  *  135.95400000  * -50.03300000  *
   917       H         75.49500000  *  135.33200000  * -51.69500000  *
   918       N         75.35800000  *  137.42700000  * -51.50600000  *
   919       H         74.62100000  *  138.12700000  * -51.38200000  *
   920       C         76.54800000  *  137.85900000  * -51.89000000  *
   921       N         77.59300000  *  137.04400000  * -51.81500000  *
   922       H         77.44700000  *  136.21200000  * -51.26800000  *
   923       H         78.49900000  *  137.44300000  * -51.92100000  *
   924       N         76.69000000  *  139.09300000  * -52.35600000  *
   925       H         75.86000000  *  139.69200000  * -52.33800000  *
   926       H         77.56200000  *  139.47800000  * -52.67100000  *
   927       C         71.03700000  *  137.42400000  * -48.54200000  *
   928       O         71.18700000  *  136.76800000  * -47.50900000  *
   929       N         70.43700000  *  138.60400000  * -48.51600000  *
   930       H         70.32800000  *  139.16900000  * -49.34700000  *
   931       C         69.93700000  *  139.07600000  * -47.23100000  *
   932       H         69.76500000  *  138.24900000  * -46.54100000  *
   933       C         70.93500000  *  140.04200000  * -46.56200000  *
   934       H         71.90900000  *  139.56600000  * -46.50900000  *
   935       H         71.04400000  *  140.94300000  * -47.17900000  *
   936       C         70.51300000  *  140.42800000  * -45.14700000  *
   937       O         70.17200000  *  139.51500000  * -44.35500000  *
   938       O         70.51000000  *  141.64400000  * -44.82500000  *
   939       C         68.58700000  *  139.73400000  * -47.37800000  *
   940       O         68.35000000  *  140.81000000  * -46.83500000  *
   941       N         67.68700000  *  139.08300000  * -48.11000000  *
   942       H         67.94300000  *  138.20800000  * -48.54500000  *
   943       C         66.35900000  *  139.64900000  * -48.29900000  *
   944       H         66.47700000  *  140.66700000  * -48.65900000  *
   945       C         65.54600000  *  138.81300000  * -49.28800000  *
   946       H         65.58300000  *  137.78400000  * -48.94500000  *
   947       H         64.50600000  *  139.14000000  * -49.25500000  *
   948       C         66.02700000  *  138.85500000  * -50.73600000  *
   949       H         67.06400000  *  138.52800000  * -50.78200000  *
   950       C         65.17300000  *  137.91700000  * -51.58300000  *
   951       H         64.15900000  *  138.30500000  * -51.68800000  *
   952       H         65.63400000  *  137.80700000  * -52.55000000  *
   953       H         65.13400000  *  136.93500000  * -51.11000000  *
   954       C         65.92100000  *  140.27700000  * -51.26400000  *
   955       H         66.42000000  *  140.99600000  * -50.63300000  *
   956       H         66.44200000  *  140.27500000  * -52.20900000  *
   957       H         64.88200000  *  140.56100000  * -51.39700000  *
   958       C         65.59400000  *  139.73400000  * -46.98200000  *
   959       O         65.58600000  *  138.79200000  * -46.16600000  *
   960       N         64.95700000  *  140.85600000  * -46.74400000  *
   961       H         64.96600000  *  141.58700000  * -47.44200000  *
   962       C         64.16700000  *  141.06200000  * -45.54500000  *
   963       H         63.55600000  *  140.17100000  * -45.40600000  *
   964       C         65.04600000  *  141.22700000  * -44.28600000  *
   965       H         64.41000000  *  141.28800000  * -43.40200000  *
   966       H         65.64500000  *  140.32400000  * -44.16900000  *
   967       C         65.98000000  *  142.44300000  * -44.28900000  *
   968       H         66.38800000  *  142.59300000  * -45.28600000  *
   969       H         65.42500000  *  143.33200000  * -43.99100000  *
   970       C         67.13900000  *  142.18400000  * -43.31800000  *
   971       H         66.74300000  *  141.90500000  * -42.33900000  *
   972       H         67.72300000  *  141.34900000  * -43.71100000  *
   973       C         68.03900000  *  143.41300000  * -43.16400000  *
   974       H         68.13400000  *  143.91200000  * -44.13400000  *
   975       H         67.55700000  *  144.11500000  * -42.47400000  *
   976       N         69.38000000  *  143.01400000  * -42.66100000  *
   977       H         69.87000000  *  142.44400000  * -43.36500000  *
   978       H         69.94300000  *  143.82600000  * -42.44000000  *
   979       H         69.29600000  *  142.46500000  * -41.81600000  *
   980       C         63.26600000  *  142.23000000  * -45.83600000  *
   981       O         63.62700000  *  143.07400000  * -46.65600000  *
   982       N         62.11200000  *  142.30300000  * -45.18600000  *
   983       C         61.62600000  *  141.34600000  * -44.17100000  *
   984       H         62.10000000  *  141.53200000  * -43.20900000  *
   985       H         61.74500000  *  140.31100000  * -44.47600000  *
   986       C         60.16400000  *  141.66900000  * -44.09500000  *
   987       H         59.73700000  *  141.34900000  * -43.14300000  *
   988       H         59.63700000  *  141.20600000  * -44.93200000  *
   989       C         60.16000000  *  143.18900000  * -44.24800000  *
   990       H         60.51600000  *  143.64900000  * -43.32100000  *
   991       H         59.20200000  *  143.56500000  * -44.57400000  *
   992       C         61.14500000  *  143.38000000  * -45.40300000  *
   993       H         60.63400000  *  143.20500000  * -46.34500000  *
   994       C         61.77100000  *  144.77100000  * -45.44800000  *
   995       O         61.39200000  *  145.58400000  * -46.27300000  *
   996       N         62.72700000  *  145.08800000  * -44.55700000  *
   997       H         62.96900000  *  144.40000000  * -43.86000000  *
   998       C         63.44600000  *  146.38500000  * -44.53400000  *
   999       H         62.71500000  *  147.19100000  * -44.43800000  *
  1000       C         64.40300000  *  146.44900000  * -43.32900000  *
  1001       H         65.09000000  *  145.60400000  * -43.37500000  *
  1002       H         64.99500000  *  147.36300000  * -43.40900000  *
  1003       C         63.70600000  *  146.47000000  * -41.96200000  *
  1004       H         63.01300000  *  147.31200000  * -41.93400000  *
  1005       H         63.14300000  *  145.54900000  * -41.82300000  *
  1006       C         64.71100000  *  146.59700000  * -40.81500000  *
  1007       O         65.73800000  *  145.93100000  * -40.77500000  *
  1008       N         64.45900000  *  147.43700000  * -39.83500000  *
  1009       H         65.13200000  *  147.51000000  * -39.08600000  *
  1010       H         63.64200000  *  148.02700000  * -39.85300000  *
  1011       C         64.28000000  *  146.67500000  * -45.80000000  *
  1012       O         64.48800000  *  147.83200000  * -46.15900000  *
  1013       N         64.75800000  *  145.62900000  * -46.47600000  *
  1014       H         64.46500000  *  144.70900000  * -46.17800000  *
  1015       C         65.53600000  *  145.69100000  * -47.71500000  *
  1016       H         66.09800000  *  146.62600000  * -47.74900000  *
  1017       C         66.55100000  *  144.51900000  * -47.74100000  *
  1018       H         66.04800000  *  143.59100000  * -47.48200000  *
  1019       H         66.93400000  *  144.40000000  * -48.75100000  *
  1020       C         67.77000000  *  144.70400000  * -46.84500000  *
  1021       O         68.05900000  *  145.77800000  * -46.34500000  *
  1022       N         68.53400000  *  143.66000000  * -46.60200000  *
  1023       H         69.39500000  *  143.80500000  * -46.10200000  *
  1024       H         68.29100000  *  142.71500000  * -46.88400000  *
  1025       C         64.63300000  *  145.70200000  * -48.96700000  *
  1026       O         65.15700000  *  145.61000000  * -50.07500000  *
  1027       N         63.30000000  *  145.80300000  * -48.83400000  *
  1028       H         62.89500000  *  145.87300000  * -47.90900000  *
  1029       C         62.40600000  *  145.84500000  * -49.97900000  *
  1030       H         62.94700000  *  145.74800000  * -50.91900000  *
  1031       C         61.36900000  *  144.72100000  * -49.88900000  *
  1032       H         60.76900000  *  144.86100000  * -48.99200000  *
  1033       H         60.74400000  *  144.79800000  * -50.77200000  *
  1034       C         62.03600000  *  143.32400000  * -49.85900000  *
  1035       H         62.67100000  *  143.24000000  * -48.98800000  *
  1036       C         61.00200000  *  142.26000000  * -49.77100000  *
  1037       H         60.24600000  *  142.42800000  * -50.53400000  *
  1038       H         61.44700000  *  141.27100000  * -49.89000000  *
  1039       H         60.52000000  *  142.31900000  * -48.79800000  *
  1040       C         62.89500000  *  143.12600000  * -51.08400000  *
  1041       H         63.82900000  *  143.66800000  * -50.95600000  *
  1042       H         63.12900000  *  142.06900000  * -51.20900000  *
  1043       H         62.39300000  *  143.49200000  * -51.96600000  *
  1044       C         61.76300000  *  147.21800000  * -49.95200000  *
  1045       O         61.15000000  *  147.60200000  * -48.96600000  *
  1046       N         61.90100000  *  147.98900000  * -51.02400000  *
  1047       H         62.39600000  *  147.61800000  * -51.83000000  *
  1048       C         61.44100000  *  149.37700000  * -51.06500000  *
  1049       H         61.06600000  *  149.68600000  * -50.09100000  *
  1050       C         62.59000000  *  150.30300000  * -51.44000000  *
  1051       H         62.91400000  *  150.06300000  * -52.45400000  *
  1052       H         62.20400000  *  151.32000000  * -51.42600000  *
  1053       C         63.80000000  *  150.22000000  * -50.50900000  *
  1054       H         64.25400000  *  149.23400000  * -50.58200000  *
  1055       C         64.78800000  *  151.26600000  * -50.98700000  *
  1056       H         64.42000000  *  152.25400000  * -50.72200000  *
  1057       H         65.75200000  *  151.08100000  * -50.52800000  *
  1058       H         64.90500000  *  151.22800000  * -52.06500000  *
  1059       C         63.46100000  *  150.50400000  * -49.04600000  *
  1060       H         62.85700000  *  149.69000000  * -48.65300000  *
  1061       H         64.37300000  *  150.55900000  * -48.45600000  *
  1062       H         62.91200000  *  151.44200000  * -48.95800000  *
  1063       C         60.31200000  *  149.54700000  * -52.05800000  *
  1064       O         60.40000000  *  149.07500000  * -53.17800000  *
  1065       N         59.26800000  *  150.25600000  * -51.67700000  *
  1066       H         59.36500000  *  150.76300000  * -50.80000000  *
  1067       C         58.08300000  *  150.44700000  * -52.50800000  *
  1068       H         58.17300000  *  149.92400000  * -53.45700000  *
  1069       C         56.81900000  *  149.90600000  * -51.78600000  *
  1070       H         55.94300000  *  150.08700000  * -52.41500000  *
  1071       C         56.95000000  *  148.40400000  * -51.54300000  *
  1072       H         57.75300000  *  148.18300000  * -50.83300000  *
  1073       H         56.01300000  *  148.00400000  * -51.15200000  *
  1074       H         57.15800000  *  147.91500000  * -52.48900000  *
  1075       C         56.64700000  *  150.60600000  * -50.43300000  *
  1076       H         57.48200000  *  150.38000000  * -49.77500000  *
  1077       H         56.60500000  *  151.68300000  * -50.57600000  *
  1078       C         55.37000000  *  150.22200000  * -49.68600000  *
  1079       H         55.48900000  *  149.24800000  * -49.22200000  *
  1080       H         55.17000000  *  150.96500000  * -48.91000000  *
  1081       H         54.52900000  *  150.16800000  * -50.38500000  *
  1082       C         57.87200000  *  151.93000000  * -52.81700000  *
  1083       O         58.38200000  *  152.79400000  * -52.10000000  *
  1084       N         57.14900000  *  152.22000000  * -53.89700000  *
  1085       H         56.70500000  *  151.48200000  * -54.43300000  *
  1086       C         56.84100000  *  153.60200000  * -54.22700000  *
  1087       H         57.16800000  *  154.27800000  * -53.43100000  *
  1088       C         57.50400000  *  154.05300000  * -55.54100000  *
  1089       H         57.21800000  *  155.07000000  * -55.80500000  *
  1090       H         58.58200000  *  154.04400000  * -55.38800000  *
  1091       C         57.19300000  *  153.14600000  * -56.70100000  *
  1092       O         56.13500000  *  152.53500000  * -56.76400000  *
  1093       N         58.11500000  *  153.07200000  * -57.64100000  *
  1094       H         57.83300000  *  152.61700000  * -58.48600000  *
  1095       H         58.88600000  *  153.71500000  * -57.62100000  *
  1096       C         55.33100000  *  153.75800000  * -54.32100000  *
  1097       O         54.57600000  *  152.79900000  * -54.11400000  *
  1098       N         54.88500000  *  154.97100000  * -54.62100000  *
  1099       H         55.52100000  *  155.73600000  * -54.79200000  *
  1100       C         53.46400000  *  155.24700000  * -54.72300000  *
  1101       H         52.92700000  *  154.82600000  * -53.87200000  *
  1102       C         53.20900000  *  156.78000000  * -54.75500000  *
  1103       H         52.16900000  *  156.98000000  * -55.02600000  *
  1104       C         53.47800000  *  157.39700000  * -53.41000000  *
  1105       H         54.52100000  *  157.25500000  * -53.13000000  *
  1106       H         53.26600000  *  158.46500000  * -53.44600000  *
[...]
 1005  H   0.85420
 1006  C   1.06759   0.81466   0.74845   0.79722
 1007  O   1.88352   1.36011   1.53728   1.80243
 1008  N   1.52725   1.33961   1.44244   1.32262
 1009  H   0.66623
 1010  H   0.69279
 1011  C   1.08345   0.76796   0.79287   0.82015
 1012  O   1.88957   1.62310   1.28326   1.70880
 1013  N   1.55226   1.52312   1.20199   1.30551
 1014  H   0.67308
 1015  C   1.07116   0.94269   1.09411   0.82002
 1016  H   0.80222
 1017  C   1.06991   1.05560   1.09148   1.15900
 1018  H   0.83622
 1019  H   0.80556
 1020  C   1.06114   0.80928   0.77847   0.77369
 1021  O   1.88078   1.75263   1.37892   1.57825
 1022  N   1.53309   1.31946   1.19840   1.59443
 1023  H   0.66878
 1024  H   0.65884
 1025  C   1.09053   0.78477   0.71195   0.85270
 1026  O   1.87706   1.77092   1.62420   1.39116
 1027  N   1.54114   1.12624   1.65963   1.18421
 1028  H   0.64968
 1029  C   1.06937   0.96896   0.98274   0.97388
 1030  H   0.81519
 1031  C   1.06727   1.06556   0.99399   1.17582
 1032  H   0.83263
 1033  H   0.84892
 1034  C   1.04097   1.01071   0.95037   1.05988
 1035  H   0.85394
 1036  C   1.04882   1.12528   1.11268   1.17375
 1037  H   0.84845
 1038  H   0.85736
 1039  H   0.86073
 1040  C   1.05134   1.14408   1.16465   1.10188
 1041  H   0.84350
 1042  H   0.86462
 1043  H   0.85150
 1044  C   1.07630   0.75372   0.84237   0.75924
 1045  O   1.87368   1.52672   1.79191   1.43659
 1046  N   1.54588   1.55756   1.17364   1.25051
 1047  H   0.64982
 1048  C   1.06443   0.98479   0.82658   1.10342
 1049  H   0.80903
 1050  C   1.06381   1.02884   1.10685   1.11970
 1051  H   0.85143
 1052  H   0.83979
 1053  C   1.04826   0.96846   1.06326   0.97714
 1054  H   0.86921
 1055  C   1.05348   1.12578   1.13463   1.15647
 1056  H   0.84341
 1057  H   0.86018
 1058  H   0.86250
 1059  C   1.05511   1.17981   1.18061   1.03550
 1060  H   0.83626
 1061  H   0.84975
 1062  H   0.84427
 1063  C   1.07425   0.80031   0.74335   0.81511
 1064  O   1.86695   1.83514   1.63047   1.35018
 1065  N   1.54067   1.19307   1.46079   1.29769
 1066  H   0.64155
 1067  C   1.07621   0.89310   1.00394   1.04046
 1068  H   0.81387
 1069  C   1.06492   1.01347   0.99090   1.02302
 1070  H   0.84065
 1071  C   1.05436   1.18017   1.03668   1.17313
 1072  H   0.84461
 1073  H   0.84618
 1074  H   0.85558
 1075  C   1.05408   1.07392   1.11966   1.02960
 1076  H   0.84534
 1077  H   0.86120
 1078  C   1.05237   1.08505   1.15994   1.13105
 1079  H   0.84620
 1080  H   0.87645
 1081  H   0.84777
 1082  C   1.08706   0.74167   0.88926   0.74208
 1083  O   1.88716   1.56825   1.57646   1.55243
 1084  N   1.54365   1.50800   1.14258   1.34162
 1085  H   0.63889
 1086  C   1.06114   0.99400   0.88788   1.01541
 1087  H   0.80444
 1088  C   1.07107   1.17452   1.11285   1.04382
 1089  H   0.83071
 1090  H   0.81786
 1091  C   1.06770   0.77850   0.79268   0.82239
 1092  O   1.88780   1.30665   1.50544   1.80292
 1093  N   1.53696   1.31225   1.52209   1.27979
 1094  H   0.69257
 1095  H   0.69570
 1096  C   1.08074   0.88487   0.77742   0.75092
 1097  O   1.89441   1.62450   1.43476   1.52656
 1098  N   1.54113   1.14485   1.19517   1.69375
 1099  H   0.67729
 1100  C   1.08535   0.83343   1.04055   1.09580
 1101  H   0.80883
 1102  C   1.08453   0.98659   0.88323   0.88914
 1103  H   0.85792
 1104  C   1.05306   1.18562   1.17287   1.05407
 1105  H   0.83928
 1106  H   0.83169
 1107  H   0.83348
 1108  O   1.85136   1.58128   1.82081   1.32289
 1109  H   0.67536
 1110  C   1.07466   0.81030   0.77002   0.81928
 1111  O   1.88599   1.23149   1.61609   1.81382
 1112  N   1.53434   1.18207   1.58167   1.22145
 1113  H   0.69153
 1114  C   1.05384   1.13280   1.13997   0.88753
 1115  H   0.84106
 1116  H   0.87159
 1117  H   0.83525
 1118  H   0.86778
 1119  C   1.10015   0.76484   0.75357   0.92054
 1120  O   1.88717   1.67003   1.57186   1.45701
 1121  N   1.54653   1.44411   1.35122   1.20826
 1122  H   0.67421
 1123  C   1.08032   0.92940   1.08590   0.92405
 1124  H   0.80964
 1125  C   1.07312   1.07885   0.95442   0.98275
 1126  H   0.84458
 1127  C   1.05753   1.18813   1.08034   1.12360
 1128  H   0.83769
 1129  H   0.85396
 1130  H   0.85848
 1131  C   1.05398   1.07453   1.13501   1.01843
 1132  H   0.85579
 1133  H   0.85277
 1134  C   1.04893   1.14430   1.14763   1.09040
 1135  H   0.85583
 1136  H   0.85935
 1137  H   0.84938
 1138  C   1.07505   0.84255   0.74905   0.79216
 1139  O   1.88225   1.88203   1.48236   1.36308
 1140  N   1.54668   1.09798   1.54205   1.34275
 1141  H   0.63148
 1142  C   1.06853   0.84997   1.04254   1.03915
 1143  H   0.81384
 1144  C   1.05970   1.08884   1.05671   1.08960
 1145  H   0.83283
 1146  H   0.84596
 1147  C   1.05091   1.08860   1.03292   1.08359
 1148  H   0.85887
 1149  H   0.84001
 1150  C   1.06115   1.07585   1.05766   1.09663
 1151  H   0.82458
 1152  H   0.82584
 1153  C   1.08155   1.03068   0.99359   1.07591
 1154  H   0.83592
 1155  H   0.82764
 1156  N   1.46385   1.23167   1.24319   1.25602
 1157  H   0.66620
 1158  H   0.69422
 1159  H   0.73041
 1160  C   1.07957   0.77844   0.75114   0.82877
 1161  O   1.88199   1.76750   1.68873   1.28787
 1162  N   1.54485   1.33071   1.42928   1.22900
 1163  H   0.64221
 1164  C   1.06985   0.91884   0.95611   1.02970
 1165  H   0.83141
 1166  C   1.06261   1.09798   1.02033   1.13378
 1167  H   0.83438
 1168  H   0.84792
 1169  C   1.05388   1.07592   0.96028   0.95828
 1170  H   0.85435
 1171  C   1.06150   1.15497   1.13914   1.09672
 1172  H   0.86239
 1173  H   0.85289
 1174  H   0.84793
 1175  C   1.05712   1.17428   1.13646   1.09486
 1176  H   0.85054
 1177  H   0.85410
 1178  H   0.86038
 1179  C   1.08610   0.79160   0.79998   0.75819
 1180  O   1.88127   1.63237   1.59711   1.53637
 1181  N   1.54446   1.36840   1.43826   1.16180
 1182  H   0.64247
 1183  C   1.06709   0.91521   0.93007   1.04714
 1184  H   0.83239
 1185  C   1.05915   1.16110   1.07850   1.16040
 1186  H   0.81489
 1187  H   0.85286
 1188  H   0.82219
 1189  C   1.08914   0.78646   0.78650   0.74610
 1190  O   1.87401   1.84177   1.35868   1.57690
 1191  N   1.54725   1.17378   1.32985   1.49542
 1192  H   0.68676
 1193  C   1.07491   0.87337   1.07895   0.94098
 1194  H   0.82151
 1195  C   1.07942   1.14378   1.18988   0.99393
 1196  H   0.80875
 1197  H   0.82614
 1198  C   1.07125   0.74103   0.72645   0.69018
 1199  O   1.88728   1.76673   1.46694   1.60341
 1200  O   1.87101   1.72066   1.49330   1.79606
 1201  C   1.09030   0.81972   0.79729   0.74428
 1202  O   1.88774   1.27649   1.81386   1.56305
 1203  N   1.56698   1.29291   1.16840   1.54362
 1204  H   0.67850
 1205  C   1.07931   1.01619   0.91894   0.95392
 1206  H   0.84186
 1207  C   1.05582   1.07983   1.20350   0.95998
 1208  H   0.81459
 1209  H   0.81814
 1210  C   1.07382   0.97113   0.97748   0.97044
 1211  C   1.08857   1.03611   1.04215   1.01381
 1212  H   0.84249
 1213  C   1.08461   0.99244   1.05625   1.01766
 1214  H   0.85957
 1215  C   1.08690   1.05797   0.99247   1.02868
 1216  H   0.84968
 1217  C   1.08968   1.03707   1.03359   0.98372
 1218  H   0.83044
 1219  C   1.08705   0.98513   1.05963   1.01974
 1220  H   0.84184
 1221  C   1.09108   0.80357   0.77355   0.76186
 1222  O   1.88486   1.44733   1.56484   1.71449
 1223  N   1.53966   1.41471   1.43610   1.13603
 1224  H   0.68062
 1225  C   1.06915   0.98080   1.07237   0.98777
 1226  H   0.80644
 1227  H   0.80320
 1228  C   1.08081   0.82940   0.77273   0.69536
 1229  O   1.87543   1.84483   1.33267   1.62464
 1230  N   1.55814   1.29715   1.23660   1.44477
 1231  H   0.66924
 1232  C   1.07755   0.89948   1.03768   0.96500
 1233  H   0.84593
 1234  C   1.06840   1.11294   0.94621   1.17850
 1235  H   0.83323
 1236  H   0.83349
 1237  C   1.05205   1.03104   0.96170   1.01140
 1238  H   0.86040
 1239  C   1.05578   1.16953   1.06604   1.16105
 1240  H   0.85671
 1241  H   0.84149
 1242  H   0.85880
 1243  C   1.05574   1.17275   1.18973   1.04471
 1244  H   0.84432
 1245  H   0.83480
 1246  H   0.86063
 1247  C   1.09749   0.86689   0.76986   0.74259
 1248  O   1.88392   1.31069   1.77554   1.56649
 1249  N   1.58472   1.28175   1.24025   1.52965
 1250  H   0.66414
 1251  C   1.06978   0.96055   0.99044   0.96089
 1252  H   0.82543
 1253  C   1.05735   1.14287   1.09960   1.16304
 1254  H   0.86430
 1255  H   0.82011
 1256  H   0.81259
 1257  C   1.07844   0.84917   0.77011   0.78391
 1258  O   1.89131   1.45609   1.52699   1.62126
 1259  N   1.54613   1.31374   1.54420   1.15303
 1260  H   0.70169
 1261  C   1.06030   0.93048   1.14799   1.09023
 1262  H   0.81691
 1263  H   0.85532
 1264  H   0.84417
 1265  H   0.88490
 1266  C   1.09730   0.75865   0.82378   0.87000
 1267  O   1.89047   1.46979   1.31214   1.86344
 1268  N   1.54399   1.50191   1.35454   1.15135
 1269  H   0.69058
 1270  C   1.07224   1.10689   0.96333   0.82283
 1271  H   0.80368
 1272  C   1.05763   1.09507   1.03355   1.14043
 1273  H   0.84500
 1274  H   0.83339
 1275  C   1.06478   0.97632   0.94820   0.96790
 1276  C   1.08162   1.01301   0.99073   1.05622
 1277  H   0.84698
 1278  C   1.08048   1.03440   1.02452   0.99482
 1279  H   0.85488
 1280  C   1.07840   1.00791   1.05305   1.02460
 1281  H   0.86076
 1282  C   1.07793   1.02548   1.00615   1.05012
 1283  H   0.86379
 1284  C   1.08013   1.06138   1.02615   1.00046
 1285  H   0.84856
 1286  C   1.08304   0.77320   0.80309   0.81750
 1287  O   1.89076   1.50349   1.62919   1.48151
 1288  N   1.53928   1.18104   1.36149   1.44761
 1289  H   0.68133
 1290  C   1.05520   1.13030   0.97658   0.99563
 1291  H   0.83729
 1292  H   0.79696
 1293  C   1.07873   0.79165   0.76053   0.80363
 1294  O   1.88126   1.53611   1.37442   1.83997
 1295  N   1.53683   1.41203   1.37730   1.18566
 1296  H   0.67125
 1297  C   1.07320   1.00505   1.18173   0.89311
 1298  H   0.82214
 1299  H   0.81560
 1300  C   1.07934   0.79705   0.76107   0.81347
 1301  O   1.89027   1.46234   1.49031   1.68757
 1302  N   1.56499   1.46262   1.16774   1.27106
 1303  C   1.06815   1.06381   0.87572   1.05124
 1304  H   0.84698
 1305  H   0.85215
 1306  C   1.05740   1.03793   1.13842   1.06204
 1307  H   0.83764
 1308  H   0.80305
 1309  C   1.05939   1.09199   0.99434   1.15219
 1310  H   0.85775
 1311  H   0.83258
 1312  C   1.07064   1.04488   0.98628   0.88088
 1313  H   0.83316
 1314  C   1.09105   0.79135   0.79477   0.82265
 1315  O   1.89226   1.35916   1.36135   1.85864
 1316  N   1.54604   1.41347   1.50908   1.12667
 1317  H   0.68438
 1318  C   1.07865   1.04455   1.12163   0.88127
 1319  H   0.80265
 1320  H   0.82091
 1321  C   1.08603   0.82896   0.73305   0.78211
 1322  O   1.88605   1.69487   1.71533   1.32080
 1323  N   1.55282   1.23531   1.41525   1.34491
 1324  H   0.68959
 1325  C   1.07643   0.85782   1.06004   0.98284
 1326  H   0.82249
 1327  C   1.05904   1.17697   1.07695   0.96473
 1328  H   0.84767
 1329  H   0.82220
 1330  C   1.05758   1.11783   1.05749   1.05039
 1331  H   0.83363
 1332  H   0.87455
 1333  C   1.06929   1.10894   1.11897   0.74626
 1334  H   0.83593
 1335  H   0.80765
 1336  N   1.53392   1.59307   1.27315   1.10589
 1337  H   0.67030
 1338  C   0.97633   0.84035   0.80649   0.79176
 1339  N   1.49889   1.55648   1.25212   1.24774
 1340  H   0.64601
 1341  H   0.65717
 1342  N   1.50165   1.59030   1.35400   1.14264
 1343  H   0.66378
 1344  H   0.65920
 1345  C   1.08038   0.77735   0.78191   0.84598
 1346  O   1.89141   1.44939   1.63100   1.54535
 1347  N   1.54356   1.55340   1.19531   1.24348
 1348  H   0.68992
 1349  C   1.09127   1.00713   1.01016   0.90952
 1350  H   0.79895
 1351  C   1.08425   0.92128   0.92496   0.88381
 1352  H   0.85127
 1353  C   1.05828   1.10839   1.12713   1.19884
 1354  H   0.82640
 1355  H   0.82797
 1356  H   0.84107
 1357  O   1.84236   1.59410   1.64189   1.56367
 1358  H   0.60954
 1359  C   1.07959   0.81197   0.79605   0.76731
 1360  O   1.88783   1.53120   1.79398   1.36691
 1361  N   1.55442   1.33113   1.29534   1.37724
 1362  H   0.64860
 1363  C   1.07362   0.97541   0.92477   1.00742
 1364  H   0.83181
 1365  C   1.05677   1.09369   1.06711   1.08358
 1366  H   0.85249
 1367  H   0.83732
 1368  C   1.05784   0.96978   0.97379   1.08252
 1369  C   1.08220   0.97552   1.07668   1.00157
 1370  H   0.85081
 1371  C   1.08719   1.08405   0.99769   0.99141
 1372  H   0.79715
 1373  C   1.06895   0.83297   0.89475   0.86993
 1374  O   1.84112   1.46264   1.54317   1.69816
 1375  H   0.60299
 1376  C   1.07159   0.99551   1.09238   1.08262
 1377  H   0.85447
 1378  C   1.07705   1.05325   1.00330   1.02309
 1379  H   0.87669
 1380  C   1.08178   0.79321   0.75847   0.82349
 1381  O   1.88961   1.35947   1.51317   1.81041
 1382  N   1.55298   1.20459   1.61334   1.15003
 1383  H   0.65922
 1384  C   1.08606   1.09436   1.05545   0.83666
 1385  H   0.84994
 1386  C   1.08035   0.85365   0.86910   1.00738
 1387  H   0.87725
 1388  C   1.05615   1.09532   1.13709   1.18957
 1389  H   0.83218
 1390  H   0.85535
 1391  H   0.85275
 1392  O   1.84991   1.30836   1.76153   1.64748
 1393  H   0.59952
 1394  C   1.08838   0.86111   0.77065   0.80792
 1395  O   1.89635   1.23756   1.65269   1.60069
 1396  N   1.54727   1.20480   1.30471   1.51983
 1397  H   0.69395
 1398  C   1.06722   1.01879   1.01436   1.05311
 1399  H   0.88146
 1400  H   0.84493
 1401  C   1.06969   0.85180   0.75632   0.78802
 1402  O   1.89318   1.66784   1.37939   1.51068
 1403  N   1.55718   1.14826   1.53541   1.33781
 1404  H   0.68918
 1405  C   1.07209   0.82300   0.97437   1.14101
 1406  H   0.83276
 1407  C   1.05676   1.16642   1.00938   1.02706
 1408  H   0.84731
 1409  H   0.83040
 1410  C   1.06021   1.20415   0.98300   1.16343
 1411  H   0.83442
 1412  H   0.83539
 1413  C   1.06240   0.73975   0.72276   0.73401
 1414  O   1.89253   1.43079   1.79855   1.60746
 1415  O   1.88380   1.53423   1.58139   1.81734
 1416  C   1.09480   0.76528   0.86732   0.74697
 1417  O   1.88700   1.65381   1.65710   1.40287
 1418  N   1.54802   1.31566   1.19231   1.48971
 1419  H   0.67115
 1420  C   1.07026   1.04651   0.86919   1.02927
 1421  H   0.87168
 1422  C   1.05523   1.03121   1.04107   0.95593
 1423  H   0.82493
 1424  C   1.05491   1.16612   1.03665   1.20501
 1425  H   0.86109
 1426  H   0.84199
 1427  H   0.82110
 1428  C   1.05352   1.16792   1.15507   1.07901
 1429  H   0.85329
 1430  H   0.83984
 1431  H   0.87283
 1432  C   1.07378   0.79240   0.74881   0.84328
 1433  O   1.88971   1.32229   1.58706   1.74393
 1434  N   1.53879   1.27318   1.49313   1.21308
 1435  H   0.68168
 1436  C   1.07440   1.00922   1.04589   0.86608
 1437  H   0.84275
 1438  C   1.06135   1.03038   1.01676   0.97994
 1439  H   0.83880
 1440  C   1.05313   1.18233   1.10080   1.10934
 1441  H   0.83355
 1442  H   0.84914
 1443  H   0.86529
 1444  C   1.05652   1.19168   1.16289   1.04354
 1445  H   0.86049
 1446  H   0.83747
 1447  H   0.83012
 1448  C   1.08287   0.80950   0.79867   0.76224
 1449  O   1.88748   1.79483   1.44263   1.43272
 1450  N   1.53612   1.24352   1.43828   1.31509
 1451  H   0.68513
 1452  C   1.07803   0.90313   0.96834   1.14053
 1453  H   0.81621
 1454  C   1.07869   0.93211   0.84229   0.98915
 1455  H   0.87353
 1456  C   1.05580   1.09977   1.13381   1.18167
 1457  H   0.84024
 1458  H   0.82849
 1459  H   0.84539
 1460  O   1.85207   1.45302   1.47069   1.77160
 1461  H   0.66548
 1462  C   1.07525   0.76597   0.82448   0.81391
 1463  O   1.88677   1.45225   1.86776   1.32180
 1464  N   1.53705   1.58461   1.12338   1.28792
 1465  H   0.68732
 1466  C   1.05224   1.16020   0.87606   1.13280
 1467  H   0.82178
 1468  H   0.85356
 1469  H   0.86624
 1470  H   0.86959
 1471  C   1.10168   0.76417   0.81175   0.89546
 1472  O   1.88719   1.42756   1.33469   1.87145
 1473  N   1.55039   1.52608   1.36324   1.14175
 1474  H   0.68724
 1475  C   1.07791   1.09043   1.02969   0.79364
 1476  H   0.81270
 1477  C   1.05937   1.13174   1.00673   1.09917
 1478  H   0.81543
 1479  H   0.82646
 1480  C   1.06834   0.97628   0.98729   0.99786
 1481  C   1.08107   0.99047   1.01957   1.00398
 1482  H   0.84549
 1483  C   1.07574   1.10241   1.04745   1.06479
 1484  H   0.82524
 1485  C   1.07248   0.88868   0.88823   0.88309
 1486  O   1.84177   1.33089   1.60082   1.72835
 1487  H   0.65403
 1488  C   1.07526   0.98859   1.10184   1.09836
 1489  H   0.83460
 1490  C   1.08716   1.07420   0.98138   0.97209
 1491  H   0.84076
 1492  C   1.08201   0.80329   0.78089   0.81051
 1493  O   1.89298   1.77875   1.64260   1.23662
 1494  N   1.53512   1.26486   1.54071   1.17726
 1495  H   0.69022
 1496  C   1.05805   0.92150   1.08517   1.15571
 1497  H   0.83212
 1498  H   0.85598
 1499  H   0.85024
 1500  H   0.86597
 1501  C   1.10296   0.82979   0.87808   0.75943
 1502  O   1.89043   1.34354   1.83485   1.42346
 1503  N   1.55421   1.37692   1.20572   1.47143
 1504  H   0.69153
 1505  C   1.07914   0.97654   0.84380   1.12478
 1506  H   0.81511
 1507  C   1.05898   0.98046   1.00853   1.06731
 1508  H   0.86933
 1509  C   1.05192   1.15808   1.05405   1.18184
 1510  H   0.83703
 1511  H   0.85311
 1512  H   0.83589
 1513  C   1.04805   1.00402   1.12232   1.09031
 1514  H   0.86268
 1515  H   0.86415
 1516  C   1.04890   1.11928   1.13515   1.13904
 1517  H   0.85385
 1518  H   0.85511
 1519  H   0.85420
 1520  C   1.07242   0.86794   0.76271   0.76282
 1521  O   1.88564   1.52999   1.48960   1.60564
 1522  N   1.54257   1.16437   1.44800   1.40500
 1523  H   0.70093
 1524  C   1.06816   0.88839   1.14590   1.09857
 1525  H   0.85017
 1526  H   0.86150
 1527  H   0.82834
 1528  H   0.86140
 1529  C   1.10311   0.85216   0.75655   0.84820
 1530  O   1.89239   1.78033   1.57474   1.31068
 1531  N   1.53868   1.27056   1.41794   1.30155
 1532  H   0.68188
 1533  C   1.05772   0.88011   1.04652   1.01930
 1534  H   0.82201
 1535  C   1.06045   1.03577   1.11733   1.10573
 1536  H   0.84101
 1537  H   0.84464
 1538  C   1.04474   0.99076   0.96524   1.06036
 1539  H   0.87890
 1540  C   1.05427   1.16060   1.06595   1.18100
 1541  H   0.84387
 1542  H   0.84593
 1543  H   0.85119
 1544  C   1.05255   1.12481   1.16992   1.10975
 1545  H   0.85981
 1546  H   0.84646
 1547  H   0.84038
 1548  C   1.08028   0.74506   0.87792   0.77731
 1549  O   1.88742   1.52372   1.42211   1.71259
 1550  N   1.54038   1.59665   1.20234   1.20262
 1551  H   0.67695
 1552  C   1.06910   1.04504   0.93967   0.93100
 1553  H   0.81862
 1554  C   1.05607   1.16716   1.05686   1.01571
 1555  H   0.83468
 1556  H   0.83401
 1557  C   1.05729   1.12793   1.10608   1.02226
 1558  H   0.84105
 1559  H   0.82396
 1560  C   1.06745   1.16653   0.93354   0.90780
 1561  H   0.81885
 1562  H   0.84026
 1563  N   1.52346   1.14355   1.42234   1.39732
 1564  H   0.66661
 1565  C   0.99030   0.79732   0.80771   0.81379
 1566  N   1.51455   1.10710   1.46266   1.48455
 1567  H   0.64542
 1568  H   0.66001
 1569  N   1.50480   1.23327   1.41595   1.42867
 1570  H   0.65954
 1571  H   0.65738
 1572  C   1.07523   0.86260   0.78981   0.77475
 1573  O   1.88856   1.59578   1.59666   1.52620
 1574  N   1.53734   1.18979   1.25217   1.49124
 1575  H   0.67733
 1576  C   1.08138   0.82416   1.13554   1.04247
 1577  H   0.82601
 1578  C   1.05990   1.15923   1.08174   0.99872
 1579  H   0.84395
 1580  H   0.84827
 1581  C   1.04873   1.08005   0.97207   0.94666
 1582  H   0.87063
 1583  C   1.05526   1.15912   1.15747   1.09095
 1584  H   0.86771
 1585  H   0.86618
 1586  H   0.85368
 1587  C   1.05657   1.16185   1.09259   1.15426
 1588  H   0.84589
 1589  H   0.86914
 1590  H   0.84463
 1591  C   1.07459   0.75942   0.76298   0.73208
 1592  O   1.88874   1.43186   1.84370   1.57867
 1593  O   1.89198   1.52739   1.54873   1.77905

 **********************
 *                    *
 * JOB ENDED NORMALLY *
 *                    *
 **********************



 TOTAL JOB TIME:            50.89 SECONDS

 == MOPAC DONE ==
