 *******************************************************************************
 **                                                                           **
 **                              MOPAC v23.2.2                                **
 **                                                                           **
 *******************************************************************************
 **          Digital Object Identifier (DOI): 10.5281/zenodo.6511958          **
 **    Visit the DOI location for information on how to cite this program.    **
 *******************************************************************************

                              PM7 CALCULATION RESULTS

 *******************************************************************************
 *  CALCULATION DONE: (MAX THREADS = 12)             Tue Jan 27 15:47:57 2026  *
 *  PM7        - The PM7 Hamiltonian to be used
 *
 *
 *
 *                 CHARGE ON SYSTEM = +2
 *
 *
 *
 *  EPS=1      - USE ANDREAS KLAMT'S COSMO IMPLICIT SOLVATION MODEL
 *  1SCF       - DO 1 SCF AND THEN STOP 
 *  T=         - A TIME OF 172800.0 SECONDS REQUESTED
 *  DUMP=N     - RESTART FILE WRITTEN EVERY 7200.0 SECONDS REQUESTED
 *******************************************************************************
PM7 1SCF CHARGE=2 EPS=1


   ATOM   CHEMICAL          X               Y               Z
  NUMBER   SYMBOL      (ANGSTROMS)     (ANGSTROMS)     (ANGSTROMS)

     1       H         71.69100000  *  165.23700000  * -45.36000000  *
     2       C         70.72700000  *  165.64400000  * -45.02500000  *
     3       O         70.67100000  *  166.69300000  * -44.40000000  *
     4       N         69.64800000  *  164.94600000  * -45.35400000  *
     5       H         69.74300000  *  164.08600000  * -45.86500000  *
     6       C         68.31800000  *  165.37700000  * -44.95100000  *
     7       H         68.30400000  *  166.44500000  * -44.75000000  *
     8       C         67.27900000  *  165.08100000  * -46.05800000  *
     9       H         67.27200000  *  164.02200000  * -46.29800000  *
    10       C         65.89200000  *  165.46600000  * -45.59200000  *
    11       H         65.46400000  *  166.22900000  * -46.24500000  *
    12       H         65.23700000  *  164.60600000  * -45.62700000  *
    13       H         65.87600000  *  165.89500000  * -44.58400000  *
    14       C         67.63700000  *  165.85600000  * -47.31700000  *
    15       H         68.59400000  *  165.52900000  * -47.70800000  *
    16       H         66.87900000  *  165.66900000  * -48.07700000  *
    17       H         67.68800000  *  166.92100000  * -47.10100000  *
    18       C         67.91500000  *  164.66400000  * -43.65700000  *
    19       O         67.55300000  *  165.30600000  * -42.67600000  *
    20       N         67.98400000  *  163.33800000  * -43.65800000  *
    21       H         68.28400000  *  162.85200000  * -44.48600000  *
    22       C         67.62300000  *  162.54400000  * -42.48700000  *
    23       H         67.90600000  *  163.07600000  * -41.58100000  *
    24       C         66.12800000  *  162.23500000  * -42.45900000  *
    25       H         65.92600000  *  161.47400000  * -43.20900000  *
    26       H         65.88500000  *  161.80700000  * -41.48800000  *
    27       C         65.21300000  *  163.39800000  * -42.74000000  *
    28       H         65.33100000  *  164.15700000  * -41.96400000  *
    29       H         65.45900000  *  163.81400000  * -43.69700000  *
    30       C         63.76600000  *  162.97200000  * -42.82400000  *
    31       O         63.44700000  *  162.11400000  * -43.67900000  *
    32       O         62.94800000  *  163.49400000  * -42.03400000  *
    33       C         68.34700000  *  161.22200000  * -42.57700000  *
    34       O         68.73000000  *  160.78800000  * -43.66100000  *
    35       N         68.52400000  *  160.57500000  * -41.43500000  *
    36       H         68.03000000  *  160.89100000  * -40.60600000  *
    37       C         69.17300000  *  159.28200000  * -41.42100000  *
    38       H         69.95100000  *  159.22100000  * -42.17800000  *
    39       C         69.75600000  *  159.01000000  * -40.03200000  *
    40       H         70.21900000  *  159.94300000  * -39.71800000  *
    41       H         68.96300000  *  158.79100000  * -39.31600000  *
    42       C         70.79800000  *  157.89600000  * -39.98300000  *
    43       H         70.31100000  *  156.94100000  * -40.17400000  *
    44       H         71.53800000  *  158.07300000  * -40.76900000  *
    45       C         71.50100000  *  157.83200000  * -38.61800000  *
    46       H         70.74900000  *  157.59000000  * -37.86000000  *
    47       H         72.23100000  *  157.01800000  * -38.63800000  *
    48       C         72.18600000  *  159.16200000  * -38.26900000  *
    49       H         72.83200000  *  159.42500000  * -39.10900000  *
    50       H         71.41200000  *  159.93100000  * -38.15600000  *
    51       N         73.00000000  *  159.10500000  * -37.02500000  *
    52       H         73.70000000  *  158.37000000  * -37.07400000  *
    53       H         73.43800000  *  159.98800000  * -36.79300000  *
    54       H         72.39100000  *  158.85400000  * -36.25100000  *
    55       C         68.06200000  *  158.28700000  * -41.74800000  *
    56       O         67.16300000  *  158.08100000  * -40.94600000  *
    57       N         68.06100000  *  157.73100000  * -42.96200000  *
    58       H         68.85700000  *  157.91400000  * -43.55200000  *
    59       C         67.13600000  *  156.65300000  * -43.36000000  *
    60       H         66.11900000  *  157.04800000  * -43.37700000  *
    61       C         67.48500000  *  156.13000000  * -44.77000000  *
    62       H         68.56400000  *  156.15700000  * -44.89400000  *
    63       C         67.03600000  *  154.67500000  * -44.98600000  *
    64       H         65.98100000  *  154.56100000  * -44.73800000  *
    65       H         67.21600000  *  154.38200000  * -46.01200000  *
    66       H         67.61400000  *  153.99200000  * -44.36300000  *
    67       C         66.86800000  *  157.08200000  * -45.81000000  *
    68       H         65.78700000  *  156.95800000  * -45.82000000  *
    69       H         67.07800000  *  158.10200000  * -45.49900000  *
    70       C         67.41500000  *  156.90500000  * -47.23200000  *
    71       H         67.12600000  *  155.94000000  * -47.63700000  *
    72       H         67.01800000  *  157.68600000  * -47.87800000  *
    73       H         68.49800000  *  156.97800000  * -47.22700000  *
    74       C         67.15700000  *  155.54200000  * -42.31000000  *
    75       O         66.10700000  *  155.08000000  * -41.86000000  *
    76       N         68.36400000  *  155.15000000  * -41.90400000  *
    77       H         69.18400000  *  155.56500000  * -42.33400000  *
    78       C         68.57000000  *  154.22900000  * -40.80400000  *
    79       H         68.60900000  *  154.79000000  * -39.87100000  *
    80       H         67.73800000  *  153.52600000  * -40.74800000  *
    81       C         69.86500000  *  153.44900000  * -40.94000000  *
    82       O         70.90300000  *  153.95900000  * -41.36700000  *
    83       N         69.79200000  *  152.20300000  * -40.50200000  *
    84       H         68.87800000  *  151.84800000  * -40.25500000  *
    85       C         70.92900000  *  151.47900000  * -39.95800000  *
    86       H         71.83700000  *  152.07700000  * -40.05600000  *
    87       C         70.66600000  *  151.25500000  * -38.45900000  *
    88       H         69.83800000  *  150.55700000  * -38.32900000  *
    89       H         71.56900000  *  150.82500000  * -38.04900000  *
    90       C         70.35500000  *  152.55100000  * -37.68200000  *
    91       H         71.16300000  *  153.26600000  * -37.84800000  *
    92       H         69.43800000  *  153.00100000  * -38.06800000  *
    93       C         70.16500000  *  152.30800000  * -36.17800000  *
    94       O         69.21000000  *  151.59800000  * -35.78800000  *
    95       O         70.92100000  *  152.89800000  * -35.37100000  *
    96       C         71.12100000  *  150.18000000  * -40.74800000  *
    97       O         70.39100000  *  149.20300000  * -40.56300000  *
    98       N         72.03600000  *  150.21100000  * -41.71900000  *
    99       H         72.66500000  *  151.00500000  * -41.77800000  *
   100       C         72.16600000  *  149.17400000  * -42.74200000  *
   101       H         71.17300000  *  148.82700000  * -43.03100000  *
   102       H         72.63300000  *  149.61800000  * -43.62000000  *
   103       C         72.99300000  *  147.95800000  * -42.32200000  *
   104       O         73.50600000  *  147.86100000  * -41.20900000  *
   105       N         73.18800000  *  147.04600000  * -43.27400000  *
   106       H         72.72000000  *  147.17200000  * -44.16200000  *
   107       C         74.04800000  *  145.84800000  * -43.16800000  *
   108       H         73.79000000  *  145.29800000  * -42.26300000  *
   109       C         73.80500000  *  144.92900000  * -44.37700000  *
   110       H         74.58500000  *  144.16800000  * -44.43700000  *
   111       C         72.45500000  *  144.23300000  * -44.28600000  *
   112       H         71.64600000  *  144.96300000  * -44.29700000  *
   113       H         72.34700000  *  143.55900000  * -45.13500000  *
   114       H         72.41700000  *  143.64200000  * -43.37000000  *
   115       O         73.81500000  *  145.71000000  * -45.54700000  *
   116       H         73.28800000  *  145.25800000  * -46.24100000  *
   117       C         75.54900000  *  146.15300000  * -43.09900000  *
   118       O         76.29300000  *  145.32500000  * -42.58000000  *
   119       N         75.98200000  *  147.32800000  * -43.57900000  *
   120       H         75.29300000  *  147.89700000  * -44.04300000  *
   121       C         77.39800000  *  147.71900000  * -43.72100000  *
   122       H         78.01800000  *  147.07000000  * -43.10100000  *
   123       C         77.82700000  *  147.53200000  * -45.18800000  *
   124       H         77.22200000  *  148.18400000  * -45.81900000  *
   125       H         78.86700000  *  147.83900000  * -45.29900000  *
   126       C         77.73600000  *  146.11600000  * -45.70000000  *
   127       C         78.65500000  *  145.16000000  * -45.23500000  *
   128       H         79.43300000  *  145.44600000  * -44.53800000  *
   129       C         78.54600000  *  143.82600000  * -45.65600000  *
   130       H         79.24700000  *  143.09700000  * -45.28200000  *
   131       C         77.51500000  *  143.44900000  * -46.54300000  *
   132       O         77.36700000  *  142.15100000  * -46.89600000  *
   133       H         77.82300000  *  141.58300000  * -46.24700000  *
   134       C         76.61400000  *  144.41500000  * -47.03300000  *
   135       H         75.81500000  *  144.12400000  * -47.69600000  *
   136       C         76.73300000  *  145.75100000  * -46.61700000  *
   137       H         76.02600000  *  146.48700000  * -46.97300000  *
   138       C         77.72700000  *  149.16400000  * -43.30100000  *
   139       O         78.86900000  *  149.58400000  * -43.46500000  *
   140       N         76.77100000  *  149.94800000  * -42.79200000  *
   141       H         75.85900000  *  149.56500000  * -42.59500000  *
   142       C         76.98500000  *  151.36600000  * -42.47500000  *
   143       H         77.53500000  *  151.45100000  * -41.54100000  *
   144       H         77.59500000  *  151.81300000  * -43.25200000  *
   145       C         75.68500000  *  152.16100000  * -42.34500000  *
   146       O         74.61900000  *  151.56800000  * -42.15300000  *
   147       N         75.75500000  *  153.49500000  * -42.44900000  *
   148       H         76.58800000  *  153.89400000  * -42.85900000  *
   149       C         74.59200000  *  154.32600000  * -42.21200000  *
   150       H         73.82600000  *  153.78000000  * -41.65800000  *
   151       C         74.95900000  *  155.54800000  * -41.37000000  *
   152       H         75.70700000  *  156.13900000  * -41.89300000  *
   153       C         73.73100000  *  156.40900000  * -41.13300000  *
   154       H         72.94300000  *  155.80300000  * -40.68200000  *
   155       H         73.98600000  *  157.21200000  * -40.45000000  *
   156       H         73.36800000  *  156.84900000  * -42.06500000  *
   157       C         75.54500000  *  155.09600000  * -40.05300000  *
   158       H         76.46000000  *  154.52800000  * -40.19800000  *
   159       H         75.77700000  *  155.95300000  * -39.42300000  *
   160       H         74.80500000  *  154.48400000  * -39.53200000  *
   161       C         74.01900000  *  154.79200000  * -43.53700000  *
   162       O         74.76100000  *  155.18400000  * -44.43700000  *
   163       N         72.70100000  *  154.66100000  * -43.66600000  *
   164       H         72.17300000  *  154.35000000  * -42.85400000  *
   165       C         71.92800000  *  155.10500000  * -44.82500000  *
   166       H         72.58900000  *  155.16400000  * -45.68700000  *
   167       C         70.78900000  *  154.11900000  * -45.16000000  *
   168       H         69.95500000  *  154.29400000  * -44.48200000  *
   169       C         70.31600000  *  154.35100000  * -46.60000000  *
   170       H         71.12100000  *  154.13600000  * -47.30100000  *
   171       H         69.47000000  *  153.70000000  * -46.82100000  *
   172       H         70.00600000  *  155.38400000  * -46.73300000  *
   173       C         71.18500000  *  152.64600000  * -45.00700000  *
   174       H         72.08800000  *  152.44400000  * -45.57700000  *
   175       H         71.35600000  *  152.41000000  * -43.95600000  *
   176       H         70.37500000  *  152.00900000  * -45.36500000  *
   177       C         71.36400000  *  156.49200000  * -44.52800000  *
   178       O         70.65500000  *  156.65000000  * -43.53000000  *
   179       N         71.62500000  *  157.49000000  * -45.37400000  *
   180       H         72.23900000  *  157.32200000  * -46.16900000  *
   181       C         71.01800000  *  158.79600000  * -45.21900000  *
   182       H         70.37900000  *  158.84300000  * -44.33800000  *
   183       C         72.10000000  *  159.86100000  * -45.06900000  *
   184       H         72.79900000  *  159.78100000  * -45.90500000  *
   185       H         71.63400000  *  160.84400000  * -45.14300000  *
   186       C         72.87100000  *  159.84300000  * -43.76800000  *
   187       C         72.34700000  *  160.43100000  * -42.61900000  *
   188       H         71.37700000  *  160.90600000  * -42.66800000  *
   189       C         73.06400000  *  160.45200000  * -41.42500000  *
   190       H         72.63300000  *  160.94600000  * -40.56800000  *
   191       C         74.33000000  *  159.87400000  * -41.37100000  *
   192       O         75.04700000  *  159.90100000  * -40.18700000  *
   193       H         74.69700000  *  160.54100000  * -39.56800000  *
   194       C         74.87500000  *  159.27800000  * -42.50300000  *
   195       H         75.78500000  *  158.71900000  * -42.41900000  *
   196       C         74.14000000  *  159.26700000  * -43.69600000  *
   197       H         74.51800000  *  158.73300000  * -44.56500000  *
   198       C         70.16700000  *  159.17400000  * -46.42900000  *
   199       O         70.41800000  *  158.72400000  * -47.55600000  *
   200       N         69.02200000  *  159.81900000  * -46.21000000  *
   201       H         68.83000000  *  160.12100000  * -45.26100000  *
   202       C         68.29500000  *  160.50100000  * -47.27900000  *
   203       H         68.28300000  *  159.89800000  * -48.18900000  *
   204       C         66.85200000  *  160.81500000  * -46.83900000  *
   205       H         66.34000000  *  159.88400000  * -46.60500000  *
   206       H         66.87100000  *  161.43000000  * -45.93700000  *
   207       C         66.04800000  *  161.53900000  * -47.93100000  *
   208       H         66.52500000  *  162.49000000  * -48.17400000  *
   209       H         66.02900000  *  160.92100000  * -48.82900000  *
   210       C         64.61100000  *  161.80800000  * -47.45800000  *
   211       H         64.15300000  *  160.87100000  * -47.13600000  *
   212       H         64.63900000  *  162.49200000  * -46.60800000  *
   213       C         63.77400000  *  162.41800000  * -48.59100000  *
   214       H         64.29500000  *  163.30200000  * -48.97400000  *
   215       H         63.70800000  *  161.68600000  * -49.40300000  *
   216       N         62.41100000  *  162.79600000  * -48.13200000  *
   217       H         62.44700000  *  163.49500000  * -47.40300000  *
   218       H         61.86500000  *  163.18500000  * -48.88900000  *
   219       H         61.90600000  *  162.00000000  * -47.76800000  *
   220       C         69.10500000  *  161.75800000  * -47.50800000  *
   221       O         69.33800000  *  162.49000000  * -46.54800000  *
   222       N         69.55500000  *  162.00600000  * -48.72500000  *
   223       H         69.34400000  *  161.34200000  * -49.46700000  *
   224       C         70.34900000  *  163.18200000  * -49.01700000  *
   225       H         70.22500000  *  163.93500000  * -48.24000000  *
   226       C         71.81400000  *  162.79200000  * -49.07000000  *
   227       H         71.97800000  *  162.06700000  * -49.86400000  *
   228       H         72.42900000  *  163.67700000  * -49.23900000  *
   229       H         72.10500000  *  162.33200000  * -48.12600000  *
   230       C         69.94400000  *  163.83800000  * -50.32200000  *
   231       O         69.22100000  *  163.25100000  * -51.12800000  *
   232       N         70.40700000  *  165.06400000  * -50.52400000  *
   233       H         70.93200000  *  165.53000000  * -49.79600000  *
   234       C         70.10800000  *  165.77900000  * -51.74600000  *
   235       H         69.54100000  *  165.15900000  * -52.44400000  *
   236       H         69.52200000  *  166.69100000  * -51.53000000  *
   237       H         71.05900000  *  166.04700000  * -52.23900000  *
   238       H         68.08600000  *  164.80700000  * -56.55000000  *
   239       C         68.21200000  *  164.39600000  * -55.53600000  *
   240       O         69.28600000  *  164.50800000  * -54.94200000  *
   241       N         67.13500000  *  163.82300000  * -55.01100000  *
   242       H         66.34000000  *  163.66800000  * -55.61500000  *
   243       C         67.13600000  *  163.21200000  * -53.68800000  *
   244       H         67.86300000  *  163.70700000  * -53.05000000  *
   245       C         65.75500000  *  163.32300000  * -53.02900000  *
   246       H         64.97700000  *  163.06900000  * -53.75000000  *
   247       C         65.64800000  *  162.36600000  * -51.85200000  *
   248       H         66.47200000  *  162.51800000  * -51.15200000  *
   249       H         64.69700000  *  162.53800000  * -51.34700000  *
   250       H         65.65200000  *  161.33900000  * -52.20000000  *
   251       C         65.54000000  *  164.75000000  * -52.56600000  *
   252       H         65.62600000  *  165.42400000  * -53.41600000  *
   253       H         64.53500000  *  164.85100000  * -52.15900000  *
   254       H         66.28400000  *  165.00300000  * -51.81000000  *
   255       C         67.52600000  *  161.76000000  * -53.84700000  *
   256       O         66.97900000  *  161.02800000  * -54.68200000  *
   257       N         68.49600000  *  161.34900000  * -53.04800000  *
   258       H         68.91100000  *  161.99700000  * -52.39100000  *
   259       C         69.01100000  *  159.99200000  * -53.10200000  *
   260       H         68.34600000  *  159.34100000  * -53.67900000  *
   261       C         70.37400000  *  159.97400000  * -53.81600000  *
   262       H         70.77500000  *  158.96500000  * -53.87500000  *
   263       C         70.21400000  *  160.50700000  * -55.21300000  *
   264       H         69.95700000  *  161.56600000  * -55.19000000  *
   265       H         71.15100000  *  160.39100000  * -55.75600000  *
   266       H         69.44200000  *  159.95000000  * -55.73600000  *
   267       C         71.37900000  *  160.85000000  * -53.05700000  *
   268       H         71.56500000  *  160.44500000  * -52.06400000  *
   269       H         72.31500000  *  160.84900000  * -53.61300000  *
   270       H         71.03600000  *  161.88400000  * -52.98400000  *
   271       C         69.19200000  *  159.37200000  * -51.72900000  *
   272       O         69.02000000  *  160.03600000  * -50.68600000  *
   273       N         69.38100000  *  158.05800000  * -51.70300000  *
   274       H         69.45300000  *  157.56400000  * -52.58800000  *
   275       C         69.75800000  *  157.32200000  * -50.51200000  *
   276       H         69.48000000  *  157.88700000  * -49.62400000  *
   277       C         68.99600000  *  156.00400000  * -50.46900000  *
   278       H         69.20400000  *  155.43000000  * -51.36900000  *
   279       H         69.29900000  *  155.42900000  * -49.59300000  *
   280       H         67.92900000  *  156.21300000  * -50.40700000  *
   281       C         71.27600000  *  157.14000000  * -50.53700000  *
   282       O         71.81000000  *  156.45900000  * -51.41900000  *
   283       N         71.97000000  *  157.79100000  * -49.60300000  *
   284       H         71.44500000  *  158.28300000  * -48.88900000  *
   285       C         73.41300000  *  157.73400000  * -49.53500000  *
   286       H         73.80300000  *  157.43200000  * -50.50200000  *
   287       C         73.96100000  *  159.11400000  * -49.18200000  *
   288       H         73.49200000  *  159.84000000  * -49.85100000  *
   289       H         73.62800000  *  159.35800000  * -48.16900000  *
   290       C         75.47300000  *  159.31600000  * -49.26600000  *
   291       H         75.96900000  *  158.63700000  * -48.57100000  *
   292       C         75.94900000  *  159.02000000  * -50.68400000  *
   293       H         75.44100000  *  159.71800000  * -51.34800000  *
   294       H         77.02400000  *  159.18800000  * -50.76300000  *
   295       H         75.74700000  *  157.98700000  * -50.96800000  *
   296       C         75.80400000  *  160.74000000  * -48.87900000  *
   297       H         75.43700000  *  160.94600000  * -47.87600000  *
   298       H         76.88200000  *  160.87900000  * -48.92200000  *
   299       H         75.32000000  *  161.42900000  * -49.57600000  *
   300       C         73.82100000  *  156.71600000  * -48.48500000  *
   301       O         73.39600000  *  156.78100000  * -47.33400000  *
   302       N         74.64700000  *  155.75200000  * -48.88400000  *
   303       H         74.88900000  *  155.73100000  * -49.87300000  *
   304       C         75.13000000  *  154.63800000  * -48.05800000  *
   305       H         74.61200000  *  154.62700000  * -47.09700000  *
   306       C         74.83400000  *  153.32900000  * -48.82600000  *
   307       H         74.33100000  *  153.57100000  * -49.76400000  *
   308       H         75.76500000  *  152.82700000  * -49.09200000  *
   309       C         73.93100000  *  152.32600000  * -48.10500000  *
   310       H         73.10500000  *  152.85100000  * -47.62800000  *
   311       H         73.51500000  *  151.67700000  * -48.87400000  *
   312       C         74.69400000  *  151.47400000  * -47.07400000  *
   313       H         75.65900000  *  151.17400000  * -47.48600000  *
   314       H         74.88700000  *  152.08400000  * -46.18700000  *
   315       C         73.92100000  *  150.20700000  * -46.66400000  *
   316       H         74.49300000  *  149.70500000  * -45.87800000  *
   317       H         72.95600000  *  150.50400000  * -46.23600000  *
   318       N         73.70800000  *  149.27700000  * -47.81200000  *
   319       H         74.57100000  *  149.04200000  * -48.28600000  *
   320       H         73.26900000  *  148.39000000  * -47.53300000  *
   321       H         73.05700000  *  149.67100000  * -48.48200000  *
   322       C         76.62300000  *  154.83900000  * -47.79500000  *
   323       O         77.41500000  *  154.66000000  * -48.71200000  *
   324       N         77.01700000  *  155.22600000  * -46.58100000  *
   325       H         76.29800000  *  155.26800000  * -45.86500000  *
   326       C         78.42200000  *  155.28900000  * -46.15900000  *
   327       H         79.06600000  *  155.59300000  * -46.98900000  *
   328       C         78.56700000  *  156.26000000  * -44.97900000  *
   329       H         78.02700000  *  155.87500000  * -44.10900000  *
   330       H         79.62500000  *  156.33900000  * -44.73000000  *
   331       C         78.01500000  *  157.64300000  * -45.34000000  *
   332       H         78.45100000  *  157.95800000  * -46.27300000  *
   333       H         76.93600000  *  157.57500000  * -45.50000000  *
   334       C         78.25100000  *  158.72500000  * -44.27900000  *
   335       H         77.97800000  *  159.68000000  * -44.73200000  *
   336       H         77.56000000  *  158.53300000  * -43.46900000  *
   337       C         79.67700000  *  158.85000000  * -43.70900000  *
   338       H         80.38400000  *  158.36300000  * -44.39700000  *
   339       H         79.95000000  *  159.91100000  * -43.68600000  *
   340       N         79.78800000  *  158.26900000  * -42.33500000  *
   341       H         79.63700000  *  157.26100000  * -42.37000000  *
   342       H         80.69600000  *  158.42600000  * -41.93200000  *
   343       H         79.10400000  *  158.64600000  * -41.70100000  *
   344       C         78.82300000  *  153.89100000  * -45.72900000  *
   345       O         78.09100000  *  153.31500000  * -44.93700000  *
   346       N         79.90700000  *  153.32000000  * -46.24700000  *
   347       H         80.40500000  *  153.76400000  * -47.01000000  *
   348       C         80.34300000  *  152.02200000  * -45.76800000  *
   349       H         79.49500000  *  151.49800000  * -45.35900000  *
   350       C         80.94400000  *  151.18600000  * -46.89500000  *
   351       H         81.78600000  *  151.78200000  * -47.16900000  *
   352       C         81.42400000  *  149.85200000  * -46.34500000  *
   353       H         80.65600000  *  149.35200000  * -45.75200000  *
   354       H         81.67900000  *  149.19900000  * -47.17900000  *
   355       H         82.34500000  *  149.95700000  * -45.76100000  *
   356       C         79.89700000  *  150.97600000  * -47.99700000  *
   357       H         79.60200000  *  151.87000000  * -48.50000000  *
   358       H         80.28300000  *  150.30500000  * -48.75000000  *
   359       C         78.59100000  *  150.36100000  * -47.52600000  *
   360       H         78.17700000  *  150.90100000  * -46.69000000  *
   361       H         77.89400000  *  150.33700000  * -48.36300000  *
   362       H         78.77100000  *  149.33300000  * -47.20900000  *
   363       C         81.33300000  *  152.07100000  * -44.61400000  *
   364       O         82.16700000  *  152.98000000  * -44.51900000  *
   365       N         81.21100000  *  151.07100000  * -43.74300000  *
   366       H         80.50300000  *  150.36100000  * -43.92800000  *
   367       C         82.04400000  *  150.90200000  * -42.55200000  *
   368       H         81.47500000  *  151.18100000  * -41.66300000  *
   369       H         82.35800000  *  149.86100000  * -42.45900000  *
   370       H         82.94700000  *  151.51400000  * -42.62000000  *
   371       H         81.25700000  *  144.04600000  * -57.89900000  *
   372       C         80.50000000  *  144.84100000  * -57.88800000  *
   373       O         79.71500000  *  144.99000000  * -58.82400000  *
   374       N         80.49900000  *  145.60300000  * -56.79700000  *
   375       H         81.28000000  *  145.52500000  * -56.16600000  *
   376       C         79.57000000  *  146.70600000  * -56.61200000  *
   377       H         78.57500000  *  146.34400000  * -56.42300000  *
   378       C         80.00500000  *  147.61000000  * -55.44200000  *
   379       H         80.89800000  *  148.18000000  * -55.68500000  *
   380       C         78.90600000  *  148.60800000  * -55.12500000  *
   381       H         77.92000000  *  148.14100000  * -55.17600000  *
   382       H         79.04500000  *  148.98700000  * -54.11600000  *
   383       H         78.93800000  *  149.43600000  * -55.83300000  *
   384       C         80.32100000  *  146.76200000  * -54.20900000  *
   385       H         81.19200000  *  146.13400000  * -54.40600000  *
   386       H         80.59400000  *  147.42200000  * -53.38900000  *
   387       C         79.18400000  *  145.87900000  * -53.76500000  *
   388       H         78.77800000  *  145.31100000  * -54.59400000  *
   389       H         79.50900000  *  145.12200000  * -53.06500000  *
   390       H         78.38800000  *  146.48300000  * -53.33500000  *
   391       C         79.54300000  *  147.54500000  * -57.87900000  *
   392       O         78.48200000  *  147.77900000  * -58.45100000  *
   393       N         80.72300000  *  147.98900000  * -58.30900000  *
   394       H         81.55800000  *  147.70100000  * -57.81200000  *
   395       C         80.85900000  *  148.80400000  * -59.51100000  *
   396       H         80.33900000  *  149.74600000  * -59.38600000  *
   397       H         81.92800000  *  148.98500000  * -59.72900000  *
   398       H         80.37800000  *  148.32200000  * -60.38100000  *
   399       H         78.96400000  *  146.08700000  * -61.65600000  *
   400       C         77.87300000  *  146.08700000  * -61.51600000  *
   401       O         77.11500000  *  145.89500000  * -62.46400000  *
   402       N         77.44600000  *  146.31800000  * -60.28000000  *
   403       H         78.13400000  *  146.42500000  * -59.54900000  *
   404       C         76.02800000  *  146.35200000  * -59.94500000  *
   405       H         75.53300000  *  145.47600000  * -60.35900000  *
   406       C         75.84100000  *  146.37400000  * -58.43100000  *
   407       H         76.20500000  *  147.30400000  * -58.01800000  *
   408       H         74.76300000  *  146.35700000  * -58.24200000  *
   409       C         76.47200000  *  145.22200000  * -57.65900000  *
   410       H         77.55000000  *  145.23900000  * -57.74900000  *
   411       C         76.08000000  *  145.34100000  * -56.19200000  *
   412       H         74.99900000  *  145.23000000  * -56.07700000  *
   413       H         76.57300000  *  144.55300000  * -55.62900000  *
   414       H         76.38500000  *  146.30900000  * -55.80100000  *
   415       C         75.99600000  *  143.89000000  * -58.23600000  *
   416       H         76.41500000  *  143.73000000  * -59.22900000  *
   417       H         76.32800000  *  143.07800000  * -57.59100000  *
   418       H         74.90500000  *  143.87400000  * -58.30500000  *
   419       C         75.32200000  *  147.55900000  * -60.54800000  *
   420       O         74.09500000  *  147.56800000  * -60.66200000  *
   421       N         76.08400000  *  148.63100000  * -60.82900000  *
   422       H         77.08200000  *  148.53500000  * -60.67700000  *
   423       C         75.60100000  *  149.83300000  * -61.53400000  *
   424       H         74.83700000  *  150.33500000  * -60.94100000  *
   425       H         76.43800000  *  150.53300000  * -61.75900000  *
   426       H         75.13800000  *  149.54900000  * -62.49200000  *
   427       H         62.79000000  *  145.77200000  * -59.27600000  *
   428       C         63.71000000  *  145.72000000  * -58.67500000  *
   429       O         63.77900000  *  145.02200000  * -57.66400000  *
   430       N         64.72400000  *  146.45200000  * -59.11400000  *
   431       H         64.63800000  *  147.05100000  * -59.92700000  *
   432       C         65.97100000  *  146.53500000  * -58.38100000  *
   433       H         65.88400000  *  146.09200000  * -57.38600000  *
   434       C         67.11600000  *  145.87700000  * -59.11400000  *
   435       H         67.33600000  *  146.42600000  * -60.03000000  *
   436       C         68.35100000  *  145.87800000  * -58.21400000  *
   437       H         68.14700000  *  145.31400000  * -57.31800000  *
   438       H         69.21000000  *  145.44500000  * -58.72400000  *
   439       H         68.64100000  *  146.89000000  * -57.94500000  *
   440       C         66.72800000  *  144.44400000  * -59.47800000  *
   441       H         66.54900000  *  143.87300000  * -58.56400000  *
   442       H         65.81500000  *  144.42400000  * -60.06800000  *
   443       C         67.77400000  *  143.72700000  * -60.29600000  *
   444       H         68.68300000  *  143.57700000  * -59.72200000  *
   445       H         67.37700000  *  142.75300000  * -60.59800000  *
   446       H         68.02300000  *  144.31300000  * -61.18000000  *
   447       C         66.29500000  *  148.01000000  * -58.22000000  *
   448       O         66.21200000  *  148.78000000  * -59.18400000  *
   449       N         66.54900000  *  148.44200000  * -56.98100000  *
   450       H         66.61600000  *  147.76200000  * -56.22800000  *
   451       C         66.88600000  *  149.84100000  * -56.68800000  *
   452       H         66.07300000  *  150.48300000  * -57.02900000  *
   453       C         67.08000000  *  150.06600000  * -55.18100000  *
   454       H         67.87100000  *  149.41000000  * -54.81500000  *
   455       C         67.45600000  *  151.51500000  * -54.85200000  *
   456       H         66.64300000  *  152.19100000  * -55.11600000  *
   457       H         67.65900000  *  151.59200000  * -53.78600000  *
   458       H         68.35300000  *  151.81500000  * -55.38900000  *
   459       C         65.78900000  *  149.75300000  * -54.42200000  *
   460       H         65.53700000  *  148.69900000  * -54.50600000  *
   461       H         65.93800000  *  149.98100000  * -53.37400000  *
   462       H         64.97000000  *  150.35200000  * -54.81300000  *
   463       C         68.15000000  *  150.21600000  * -57.45300000  *
   464       O         69.17800000  *  149.54500000  * -57.32800000  *
   465       N         68.08000000  *  151.28300000  * -58.25100000  *
   466       H         67.22500000  *  151.80400000  * -58.24500000  *
   467       C         69.18900000  *  151.69800000  * -59.08000000  *
   468       H         69.52500000  *  150.81900000  * -59.63900000  *
   469       C         68.73700000  *  152.76800000  * -60.08300000  *
   470       H         67.83400000  *  152.41100000  * -60.57900000  *
   471       H         68.47700000  *  153.68100000  * -59.53700000  *
   472       C         69.79100000  *  153.06900000  * -61.13100000  *
   473       H         70.72100000  *  153.35000000  * -60.64200000  *
   474       H         69.97400000  *  152.16800000  * -61.71600000  *
   475       C         69.35100000  *  154.17900000  * -62.08100000  *
   476       H         68.50200000  *  153.81400000  * -62.66100000  *
   477       H         69.02300000  *  155.05600000  * -61.52200000  *
   478       C         70.49800000  *  154.55900000  * -63.02400000  *
   479       H         71.33900000  *  154.89000000  * -62.40800000  *
   480       H         70.81900000  *  153.66100000  * -63.56600000  *
   481       N         70.11800000  *  155.62600000  * -63.99700000  *
   482       H         69.74700000  *  156.41600000  * -63.48300000  *
   483       H         70.92600000  *  155.93300000  * -64.52500000  *
   484       H         69.41500000  *  155.27800000  * -64.63600000  *
   485       C         70.36000000  *  152.21400000  * -58.25300000  *
   486       O         70.19400000  *  153.07400000  * -57.38700000  *
   487       N         71.53700000  *  151.64500000  * -58.50700000  *
   488       H         71.59600000  *  150.90400000  * -59.18600000  *
   489       C         72.75000000  *  152.07400000  * -57.83600000  *
   490       H         72.53800000  *  152.52600000  * -56.87100000  *
   491       C         73.72700000  *  150.91100000  * -57.67000000  *
   492       H         73.31500000  *  150.22100000  * -56.93700000  *
   493       H         73.77900000  *  150.36900000  * -58.62000000  *
   494       C         75.16700000  *  151.27300000  * -57.28800000  *
   495       H         75.65500000  *  151.80300000  * -58.10000000  *
   496       C         75.18300000  *  152.16500000  * -56.05900000  *
   497       H         74.60800000  *  151.72100000  * -55.25200000  *
   498       H         76.21000000  *  152.29600000  * -55.73500000  *
   499       H         74.78900000  *  153.14000000  * -56.31200000  *
   500       C         75.93300000  *  149.99400000  * -57.01300000  *
   501       H         75.98300000  *  149.42100000  * -57.93300000  *
   502       H         76.94600000  *  150.24200000  * -56.71200000  *
   503       H         75.43500000  *  149.41000000  * -56.23200000  *
   504       C         73.31900000  *  153.11300000  * -58.79500000  *
   505       O         73.76900000  *  152.77900000  * -59.89700000  *
   506       N         73.26700000  *  154.36900000  * -58.37800000  *
   507       H         72.92600000  *  154.57000000  * -57.44900000  *
   508       C         73.73400000  *  155.46600000  * -59.19700000  *
   509       H         73.47500000  *  155.26500000  * -60.23600000  *
   510       C         73.02500000  *  156.74200000  * -58.76000000  *
   511       H         73.45000000  *  157.06300000  * -57.80900000  *
   512       H         73.23600000  *  157.53300000  * -59.48700000  *
   513       C         71.51300000  *  156.60300000  * -58.58700000  *
   514       H         71.27400000  *  155.80900000  * -57.88500000  *
   515       C         70.97400000  *  157.88000000  * -58.01900000  *
   516       H         71.37000000  *  158.74600000  * -58.56000000  *
   517       H         69.88800000  *  157.89100000  * -58.09300000  *
   518       H         71.22100000  *  157.96000000  * -56.96600000  *
   519       C         70.85100000  *  156.29000000  * -59.92300000  *
   520       H         71.28300000  *  155.39700000  * -60.34200000  *
   521       H         69.78900000  *  156.14400000  * -59.75100000  *
   522       H         71.00300000  *  157.12700000  * -60.60700000  *
   523       C         75.24500000  *  155.67800000  * -59.15800000  *
   524       O         75.83900000  *  156.04700000  * -60.17600000  *
   525       N         75.86200000  *  155.44600000  * -57.99600000  *
   526       H         75.29500000  *  155.17900000  * -57.20400000  *
   527       C         77.30800000  *  155.64700000  * -57.82900000  *
   528       H         77.80800000  *  155.40400000  * -58.76600000  *
   529       C         77.60000000  *  157.11700000  * -57.51900000  *
   530       H         76.91700000  *  157.54400000  * -56.80300000  *
   531       H         78.58200000  *  157.17000000  * -57.04800000  *
   532       C         77.65600000  *  157.97500000  * -58.75600000  *
   533       O         78.67800000  *  157.91700000  * -59.48300000  *
   534       O         76.67400000  *  158.70400000  * -59.00000000  *
   535       C         77.97900000  *  154.81700000  * -56.73400000  *
   536       O         77.37100000  *  154.52100000  * -55.70400000  *
   537       N         79.24700000  *  154.47700000  * -56.96600000  *
   538       H         79.69800000  *  154.82400000  * -57.79800000  *
   539       C         80.06100000  *  153.73800000  * -56.00300000  *
   540       H         79.55400000  *  153.69900000  * -55.05200000  *
   541       C         80.36600000  *  152.29800000  * -56.50400000  *
   542       H         79.42700000  *  151.75200000  * -56.56200000  *
   543       C         80.98100000  *  152.34300000  * -57.88400000  *
   544       H         82.06600000  *  152.43300000  * -57.82100000  *
   545       H         80.74600000  *  151.41400000  * -58.37900000  *
   546       H         80.59600000  *  153.14500000  * -58.51000000  *
   547       C         81.29900000  *  151.58800000  * -55.53900000  *
   548       H         80.81100000  *  151.54900000  * -54.57200000  *
   549       H         81.47300000  *  150.57200000  * -55.87800000  *
   550       H         82.25900000  *  152.09200000  * -55.44900000  *
   551       C         81.36500000  *  154.53600000  * -55.81000000  *
   552       O         82.27000000  *  154.48900000  * -56.64700000  *
   553       N         81.45200000  *  155.28200000  * -54.71000000  *
   554       H         80.67600000  *  155.30400000  * -54.06400000  *
   555       C         82.62100000  *  156.11100000  * -54.44300000  *
   556       H         83.20500000  *  156.21800000  * -55.35800000  *
   557       H         82.32200000  *  157.12800000  * -54.14500000  *
   558       H         83.29700000  *  155.73900000  * -53.65600000  *
   559       H         84.58000000  *  155.17100000  * -47.07300000  *
   560       C         84.22500000  *  154.98400000  * -48.09100000  *
   561       O         84.63900000  *  155.65900000  * -49.04200000  *
   562       N         83.35800000  *  153.99100000  * -48.22200000  *
   563       H         83.13600000  *  153.42800000  * -47.41700000  *
   564       C         82.77600000  *  153.65100000  * -49.50600000  *
   565       H         83.37000000  *  154.04700000  * -50.31700000  *
   566       C         82.71900000  *  152.14000000  * -49.66000000  *
   567       H         83.74000000  *  151.87500000  * -49.95700000  *
   568       H         82.64400000  *  151.54600000  * -48.78400000  *
   569       C         81.82600000  *  151.61900000  * -50.77900000  *
   570       H         80.79100000  *  151.88400000  * -50.58700000  *
   571       C         82.25800000  *  152.23100000  * -52.09200000  *
   572       H         83.31100000  *  152.49100000  * -52.08900000  *
   573       H         82.09300000  *  151.51300000  * -52.88400000  *
   574       H         81.65400000  *  153.10900000  * -52.31200000  *
   575       C         81.89900000  *  150.09400000  * -50.82200000  *
   576       H         81.91300000  *  149.66400000  * -49.82700000  *
   577       H         81.05200000  *  149.70600000  * -51.39100000  *
   578       H         82.82500000  *  149.80300000  * -51.32100000  *
   579       C         81.36700000  *  154.23200000  * -49.54800000  *
   580       O         80.51800000  *  153.85700000  * -48.74500000  *
   581       N         81.13100000  *  155.16100000  * -50.46700000  *
   582       H         81.84500000  *  155.34800000  * -51.16200000  *
   583       C         79.82200000  *  155.78100000  * -50.60800000  *
   584       H         79.27400000  *  155.67000000  * -49.68700000  *
   585       C         79.96700000  *  157.27800000  * -50.86800000  *
   586       H         80.42300000  *  157.50400000  * -51.79700000  *
   587       H         78.95400000  *  157.66400000  * -50.98900000  *
   588       C         80.57600000  *  158.04300000  * -49.72300000  *
   589       C         79.79300000  *  158.48000000  * -48.65600000  *
   590       H         78.73500000  *  158.25400000  * -48.66900000  *
   591       C         80.35600000  *  159.18600000  * -47.59400000  *
   592       H         79.75300000  *  159.56200000  * -46.79700000  *
   593       C         81.71600000  *  159.45200000  * -47.58700000  *
   594       O         82.27600000  *  160.12500000  * -46.52100000  *
   595       H         83.20600000  *  160.30800000  * -46.74500000  *
   596       C         82.51400000  *  159.02600000  * -48.63700000  *
   597       H         83.58200000  *  159.23300000  * -48.65000000  *
   598       C         81.94100000  *  158.32800000  * -49.69800000  *
   599       H         82.57400000  *  157.98100000  * -50.50200000  *
   600       C         79.04800000  *  155.15800000  * -51.76500000  *
   601       O         79.54400000  *  155.08000000  * -52.88800000  *
   602       N         77.86200000  *  154.62500000  * -51.49400000  *
   603       H         77.53700000  *  154.64700000  * -50.53400000  *
   604       C         76.98000000  *  154.05500000  * -52.51100000  *
   605       H         77.50500000  *  153.99900000  * -53.45900000  *
   606       C         76.54500000  *  152.62500000  * -52.14600000  *
   607       H         75.86100000  *  152.67500000  * -51.30700000  *
   608       H         75.99400000  *  152.21900000  * -52.99500000  *
   609       C         77.68100000  *  151.65400000  * -51.78500000  *
   610       H         78.19600000  *  152.00300000  * -50.89000000  *
   611       C         77.10900000  *  150.26600000  * -51.50100000  *
   612       H         76.61000000  *  149.87500000  * -52.39000000  *
   613       H         77.91400000  *  149.58700000  * -51.21600000  *
   614       H         76.39500000  *  150.32200000  * -50.68100000  *
   615       C         78.68600000  *  151.52600000  * -52.92300000  *
   616       H         79.20600000  *  152.47100000  * -53.05900000  *
   617       H         79.42200000  *  150.76500000  * -52.67500000  *
   618       H         78.17200000  *  151.25800000  * -53.84700000  *
   619       C         75.78600000  *  154.98600000  * -52.67200000  *
   620       O         75.10300000  *  155.26400000  * -51.68200000  *
   621       N         75.54700000  *  155.50800000  * -53.87800000  *
   622       H         76.14500000  *  155.25500000  * -54.66000000  *
   623       C         74.40900000  *  156.37500000  * -54.09400000  *
   624       H         73.97600000  *  156.70200000  * -53.15000000  *
   625       C         74.83400000  *  157.63700000  * -54.81800000  *
   626       H         75.25500000  *  157.34500000  * -55.76600000  *
   627       C         73.61400000  *  158.52200000  * -55.10900000  *
   628       H         73.11700000  *  158.76900000  * -54.17500000  *
   629       H         73.94100000  *  159.43100000  * -55.61500000  *
   630       H         72.91600000  *  158.00900000  * -55.76200000  *
   631       C         75.84000000  *  158.38200000  * -53.94900000  *
   632       H         75.28100000  *  158.78400000  * -53.13000000  *
   633       H         76.65600000  *  157.75800000  * -53.60500000  *
   634       H         76.26100000  *  159.20400000  * -54.52500000  *
   635       C         73.31400000  *  155.64400000  * -54.85300000  *
   636       O         73.49500000  *  155.22100000  * -55.99400000  *
   637       N         72.19500000  *  155.41000000  * -54.16900000  *
   638       H         72.12900000  *  155.76600000  * -53.21900000  *
   639       C         71.01000000  *  154.74200000  * -54.70200000  *
   640       H         71.26000000  *  154.26400000  * -55.64500000  *
   641       C         70.54400000  *  153.66200000  * -53.72000000  *
   642       H         70.40200000  *  154.11500000  * -52.74000000  *
   643       H         69.57000000  *  153.29700000  * -54.04300000  *
   644       C         71.47700000  *  152.47400000  * -53.58000000  *
   645       C         71.36300000  *  151.37900000  * -54.45900000  *
   646       H         70.63200000  *  151.39600000  * -55.25500000  *
   647       C         72.19000000  *  150.25400000  * -54.30200000  *
   648       H         72.09200000  *  149.41100000  * -54.97300000  *
   649       C         73.14200000  *  150.22000000  * -53.26800000  *
   650       H         73.77800000  *  149.35300000  * -53.14600000  *
   651       C         73.26400000  *  151.31300000  * -52.39300000  *
   652       H         73.98800000  *  151.28000000  * -51.59400000  *
   653       C         72.43800000  *  152.44200000  * -52.55100000  *
   654       H         72.53300000  *  153.28000000  * -51.87300000  *
   655       C         69.88100000  *  155.74800000  * -54.95800000  *
   656       O         69.72300000  *  156.71500000  * -54.21200000  *
   657       N         69.07800000  *  155.53000000  * -56.00200000  *
   658       H         69.24600000  *  154.70600000  * -56.57000000  *
   659       C         67.81700000  *  156.27100000  * -56.18700000  *
   660       H         68.06400000  *  157.32000000  * -56.35600000  *
   661       C         67.06300000  *  155.75900000  * -57.42700000  *
   662       H         66.22500000  *  156.43200000  * -57.60900000  *
   663       H         67.72900000  *  155.79900000  * -58.29000000  *
   664       C         66.52700000  *  154.32700000  * -57.26800000  *
   665       H         67.36800000  *  153.65700000  * -57.08000000  *
   666       H         65.86000000  *  154.28500000  * -56.41000000  *
   667       C         65.72600000  *  153.81800000  * -58.46900000  *
   668       O         65.27000000  *  154.62200000  * -59.31400000  *
   669       O         65.50600000  *  152.58800000  * -58.52800000  *
   670       C         66.93600000  *  156.18900000  * -54.92300000  *
   671       O         66.85500000  *  155.13500000  * -54.29600000  *
   672       N         66.27800000  *  157.27500000  * -54.51800000  *
   673       H         66.32800000  *  158.12400000  * -55.06300000  *
   674       C         65.42600000  *  157.27000000  * -53.32200000  *
   675       H         65.92600000  *  156.69300000  * -52.54100000  *
   676       C         65.28500000  *  158.70300000  * -52.80700000  *
   677       H         66.28100000  *  159.10200000  * -52.62000000  *
   678       H         64.81500000  *  159.31800000  * -53.57700000  *
   679       C         64.49000000  *  158.81700000  * -51.52400000  *
   680       C         63.13900000  *  159.21400000  * -51.55300000  *
   681       H         62.66100000  *  159.45100000  * -52.49400000  *
   682       C         62.40500000  *  159.29600000  * -50.35800000  *
   683       H         61.36800000  *  159.60000000  * -50.38300000  *
   684       C         63.01600000  *  158.97800000  * -49.13300000  *
   685       H         62.44800000  *  159.03100000  * -48.21300000  *
   686       C         64.36800000  *  158.59800000  * -49.10500000  *
   687       H         64.84600000  *  158.37100000  * -48.16500000  *
   688       C         65.10400000  *  158.51100000  * -50.29700000  *
   689       H         66.14100000  *  158.20500000  * -50.26900000  *
   690       C         64.05000000  *  156.62200000  * -53.57000000  *
   691       O         63.41100000  *  156.89100000  * -54.59000000  *
   692       N         63.56800000  *  155.82300000  * -52.61000000  *
   693       H         64.16300000  *  155.62500000  * -51.81100000  *
   694       C         62.19000000  *  155.31200000  * -52.54800000  *
   695       H         61.57900000  *  155.81800000  * -53.29600000  *
   696       C         62.14300000  *  153.79900000  * -52.82100000  *
   697       H         62.89400000  *  153.29800000  * -52.21100000  *
   698       H         61.16500000  *  153.44300000  * -52.49300000  *
   699       C         62.32000000  *  153.42500000  * -54.30500000  *
   700       H         61.97300000  *  154.24400000  * -54.93500000  *
   701       C         63.77900000  *  153.11500000  * -54.63800000  *
   702       H         64.14700000  *  152.32200000  * -53.99100000  *
   703       H         63.87100000  *  152.81900000  * -55.68100000  *
   704       H         64.38900000  *  154.00200000  * -54.48100000  *
   705       C         61.49000000  *  152.18600000  * -54.65200000  *
   706       H         60.44200000  *  152.36200000  * -54.40700000  *
   707       H         61.56000000  *  151.98500000  * -55.71900000  *
   708       H         61.84600000  *  151.32200000  * -54.09500000  *
   709       C         61.57300000  *  155.62300000  * -51.17900000  *
   710       O         62.22900000  *  155.51800000  * -50.14900000  *
   711       N         60.31000000  *  156.04100000  * -51.15600000  *
   712       H         59.82400000  *  156.13100000  * -52.04000000  *
   713       C         59.71400000  *  156.72400000  * -50.00300000  *
   714       H         60.43400000  *  157.46000000  * -49.64300000  *
   715       C         58.47700000  *  157.49700000  * -50.47800000  *
   716       H         57.69400000  *  156.78400000  * -50.74000000  *
   717       H         58.12200000  *  158.11200000  * -49.65300000  *
   718       C         58.71600000  *  158.39600000  * -51.67000000  *
   719       N         58.85000000  *  157.97000000  * -52.99700000  *
   720       C         59.06700000  *  159.08300000  * -53.72100000  *
   721       H         59.21300000  *  159.10700000  * -54.79500000  *
   722       N         59.07300000  *  160.16500000  * -52.92400000  *
   723       H         59.21200000  *  161.12100000  * -53.23900000  *
   724       C         58.85300000  *  159.75300000  * -51.62800000  *
   725       H         58.79900000  *  160.37700000  * -50.74400000  *
   726       C         59.38900000  *  155.83700000  * -48.78400000  *
   727       O         59.16700000  *  156.37700000  * -47.70000000  *
   728       N         59.35400000  *  154.50400000  * -48.92600000  *
   729       H         59.54900000  *  154.11400000  * -49.83800000  *
   730       C         58.99400000  *  153.56600000  * -47.84900000  *
   731       H         59.40800000  *  153.94400000  * -46.91600000  *
   732       C         57.45600000  *  153.54500000  * -47.70700000  *
   733       H         57.12100000  *  154.55700000  * -47.47400000  *
   734       H         57.00000000  *  153.25300000  * -48.65500000  *
   735       C         56.95500000  *  152.60200000  * -46.60200000  *
   736       H         56.79500000  *  151.61200000  * -47.02400000  *
   737       H         57.71100000  *  152.52900000  * -45.82100000  *
   738       C         55.67300000  *  153.09000000  * -45.93900000  *
   739       O         55.69200000  *  153.76600000  * -44.92300000  *
   740       N         54.51300000  *  152.76900000  * -46.47000000  *
   741       H         53.68900000  *  153.11000000  * -45.99700000  *
   742       H         54.46900000  *  152.24200000  * -47.32400000  *
   743       C         59.58100000  *  152.15600000  * -48.07000000  *
   744       O         59.69700000  *  151.70400000  * -49.20900000  *
   745       N         59.93800000  *  151.45100000  * -46.98700000  *
   746       H         59.81300000  *  151.86800000  * -46.07900000  *
   747       C         60.28400000  *  150.02000000  * -47.02300000  *
   748       H         60.58400000  *  149.78500000  * -48.04000000  *
   749       C         61.51600000  *  149.70200000  * -46.14700000  *
   750       H         61.85300000  *  148.69800000  * -46.41100000  *
   751       H         62.31800000  *  150.38800000  * -46.42300000  *
   752       C         61.31800000  *  149.74100000  * -44.62300000  *
   753       O         60.25300000  *  149.31000000  * -44.13400000  *
   754       O         62.26100000  *  150.15800000  * -43.91200000  *
   755       C         59.07600000  *  149.11000000  * -46.71500000  *
   756       O         58.04500000  *  149.55100000  * -46.19100000  *
   757       N         59.19100000  *  147.81900000  * -47.04800000  *
   758       H         60.03800000  *  147.50900000  * -47.52500000  *
   759       C         58.10100000  *  146.88000000  * -46.84100000  *
   760       H         57.21800000  *  147.32500000  * -47.29300000  *
   761       C         58.41200000  *  145.57700000  * -47.59200000  *
   762       H         58.61300000  *  145.80400000  * -48.64400000  *
   763       H         59.28800000  *  145.12100000  * -47.15800000  *
   764       C         57.28700000  *  144.52700000  * -47.51900000  *
   765       H         57.05600000  *  144.28000000  * -46.48700000  *
   766       C         56.00700000  *  145.04400000  * -48.19600000  *
   767       H         56.23500000  *  145.37800000  * -49.20200000  *
   768       H         55.26800000  *  144.24500000  * -48.23100000  *
   769       H         55.59500000  *  145.87000000  * -47.62900000  *
   770       C         57.76800000  *  143.24900000  * -48.17500000  *
   771       H         58.61500000  *  142.85400000  * -47.62000000  *
   772       H         56.97300000  *  142.50400000  * -48.17100000  *
   773       H         58.06400000  *  143.44500000  * -49.20700000  *
   774       C         57.76400000  *  146.61300000  * -45.36900000  *
   775       O         56.60900000  *  146.37600000  * -45.03000000  *
   776       N         58.75700000  *  146.67700000  * -44.48800000  *
   777       H         59.64000000  *  147.08600000  * -44.79000000  *
   778       C         58.49100000  *  146.46700000  * -43.07300000  *
   779       H         57.97900000  *  145.55100000  * -42.87200000  *
   780       C         59.78200000  *  146.47800000  * -42.25400000  *
   781       H         60.44800000  *  145.70000000  * -42.62000000  *
   782       H         60.28600000  *  147.44000000  * -42.35600000  *
   783       C         59.49200000  *  146.22900000  * -40.76500000  *
   784       H         58.94200000  *  147.08300000  * -40.37400000  *
   785       H         58.87100000  *  145.33200000  * -40.67600000  *
   786       C         60.74500000  *  146.03800000  * -39.93500000  *
   787       H         61.36100000  *  145.25900000  * -40.37900000  *
   788       H         61.30800000  *  146.97100000  * -39.90700000  *
   789       C         60.37600000  *  145.60700000  * -38.51700000  *
   790       H         59.98500000  *  144.58900000  * -38.53700000  *
   791       H         61.27900000  *  145.61300000  * -37.90300000  *
   792       N         59.34600000  *  146.53100000  * -37.94700000  *
   793       H         58.44600000  *  146.48100000  * -38.44300000  *
   794       H         59.09000000  *  146.27800000  * -37.00400000  *
   795       H         59.61300000  *  147.50600000  * -37.97800000  *
   796       C         57.55800000  *  147.53800000  * -42.51200000  *
   797       O         56.61300000  *  147.23400000  * -41.78300000  *
   798       N         57.83700000  *  148.81000000  * -42.80900000  *
   799       H         58.66600000  *  148.99700000  * -43.37700000  *
   800       C         57.02200000  *  149.94000000  * -42.34800000  *
   801       H         56.92400000  *  149.88100000  * -41.26200000  *
   802       C         57.73900000  *  151.25400000  * -42.70000000  *
   803       H         58.76200000  *  151.20300000  * -42.32400000  *
   804       H         57.77600000  *  151.36900000  * -43.78300000  *
   805       C         57.05100000  *  152.47400000  * -42.07100000  *
   806       H         56.05100000  *  152.58500000  * -42.49200000  *
   807       H         56.95900000  *  152.31900000  * -40.99400000  *
   808       C         57.85700000  *  153.75700000  * -42.32100000  *
   809       H         58.83500000  *  153.66300000  * -41.84400000  *
   810       H         57.99800000  *  153.89800000  * -43.39400000  *
   811       C         57.11200000  *  154.96300000  * -41.73600000  *
   812       H         56.14100000  *  155.04900000  * -42.23500000  *
   813       H         56.92600000  *  154.77700000  * -40.67400000  *
   814       N         57.88200000  *  156.22200000  * -41.90000000  *
   815       H         58.04500000  *  156.43000000  * -42.87400000  *
   816       H         57.38400000  *  157.00400000  * -41.50000000  *
   817       H         58.77700000  *  156.16500000  * -41.43700000  *
   818       C         55.61200000  *  149.84700000  * -42.92800000  *
   819       O         54.63800000  *  150.09600000  * -42.22300000  *
   820       N         55.49500000  *  149.42600000  * -44.18900000  *
   821       H         56.35000000  *  149.26300000  * -44.71300000  *
   822       C         54.20500000  *  149.26000000  * -44.85200000  *
   823       H         53.62600000  *  150.17500000  * -44.72500000  *
   824       C         54.41000000  *  148.98800000  * -46.34000000  *
   825       H         54.98900000  *  149.80200000  * -46.77700000  *
   826       H         55.00200000  *  148.07700000  * -46.45200000  *
   827       C         53.12600000  *  148.85300000  * -47.10800000  *
   828       C         52.23100000  *  149.92200000  * -47.18600000  *
   829       H         52.46300000  *  150.85600000  * -46.69900000  *
   830       C         51.01500000  *  149.79500000  * -47.88400000  *
   831       H         50.32500000  *  150.62800000  * -47.91800000  *
   832       C         50.69700000  *  148.60300000  * -48.50200000  *
   833       H         49.75200000  *  148.50200000  * -49.02000000  *
   834       C         51.58700000  *  147.52100000  * -48.43200000  *
   835       H         51.33500000  *  146.58300000  * -48.91200000  *
   836       C         52.79500000  *  147.65400000  * -47.73300000  *
   837       H         53.46700000  *  146.81000000  * -47.67200000  *
   838       C         53.37400000  *  148.12200000  * -44.22700000  *
   839       O         52.16900000  *  148.28300000  * -44.00900000  *
   840       N         54.01600000  *  146.98100000  * -43.96600000  *
   841       H         55.00900000  *  146.90600000  * -44.17900000  *
   842       C         53.33800000  *  145.83600000  * -43.34100000  *
   843       H         52.47600000  *  145.52800000  * -43.93400000  *
   844       C         54.29200000  *  144.65000000  * -43.17000000  *
   845       H         55.15800000  *  145.02700000  * -42.63600000  *
   846       H         53.80700000  *  143.89200000  * -42.54700000  *
   847       C         54.73100000  *  144.00400000  * -44.46100000  *
   848       H         53.84700000  *  143.61400000  * -44.95900000  *
   849       H         55.19200000  *  144.69400000  * -45.15000000  *
   850       S         55.79700000  *  142.58100000  * -44.15400000  *
   851       C         57.05400000  *  143.29200000  * -43.18800000  *
   852       H         56.67800000  *  143.65800000  * -42.23500000  *
   853       H         57.80700000  *  142.53400000  * -42.98200000  *
   854       H         57.44300000  *  144.07900000  * -43.80900000  *
   855       C         52.84400000  *  146.26000000  * -41.95900000  *
   856       O         51.68200000  *  146.03200000  * -41.61400000  *
   857       N         53.72600000  *  146.88400000  * -41.17900000  *
   858       H         54.70100000  *  146.95700000  * -41.45300000  *
   859       C         53.34300000  *  147.35100000  * -39.84600000  *
   860       H         53.03400000  *  146.49700000  * -39.23800000  *
   861       C         54.50500000  *  148.07700000  * -39.15700000  *
   862       H         54.94100000  *  148.81500000  * -39.83000000  *
   863       H         54.12400000  *  148.60600000  * -38.28400000  *
   864       C         55.58400000  *  147.11500000  * -38.68500000  *
   865       O         55.26200000  *  145.90900000  * -38.57600000  *
   866       O         56.73300000  *  147.55200000  * -38.41700000  *
   867       C         52.15000000  *  148.27900000  * -39.96300000  *
   868       O         51.20300000  *  148.18000000  * -39.18700000  *
   869       N         52.18300000  *  149.16200000  * -40.95500000  *
   870       H         53.01600000  *  149.23700000  * -41.51800000  *
   871       C         51.08600000  *  150.10000000  * -41.17300000  *
   872       H         50.93100000  *  150.67400000  * -40.25800000  *
   873       C         51.42800000  *  151.06800000  * -42.31500000  *
   874       H         51.45500000  *  150.53900000  * -43.26600000  *
   875       H         50.66000000  *  151.83800000  * -42.36800000  *
   876       H         52.39300000  *  151.53600000  * -42.12800000  *
   877       C         49.78900000  *  149.37000000  * -41.49900000  *
   878       O         48.71100000  *  149.83600000  * -41.15600000  *
   879       N         49.90500000  *  148.22900000  * -42.16400000  *
   880       H         50.83800000  *  147.88500000  * -42.38200000  *
   881       C         48.74000000  *  147.45400000  * -42.57500000  *
   882       H         47.85700000  *  148.08600000  * -42.62800000  *
   883       H         48.90600000  *  147.02300000  * -43.58600000  *
   884       H         48.52600000  *  146.61900000  * -41.88800000  *
   885       H         72.54500000  *  137.05800000  * -55.15200000  *
   886       C         72.38600000  *  137.90500000  * -54.47400000  *
   887       O         73.28300000  *  138.71900000  * -54.28600000  *
   888       N         71.20100000  *  138.01500000  * -53.89800000  *
   889       H         70.47300000  *  137.31400000  * -54.05700000  *
   890       C         70.96800000  *  139.10000000  * -52.94900000  *
   891       H         71.50000000  *  140.00600000  * -53.22900000  *
   892       C         69.47700000  *  139.40500000  * -52.82500000  *
   893       H         69.09300000  *  139.71900000  * -53.79200000  *
   894       H         68.93000000  *  138.50600000  * -52.53300000  *
   895       C         69.17800000  *  140.45400000  * -51.81200000  *
   896       N         69.23000000  *  140.42300000  * -50.45900000  *
   897       C         68.94700000  *  141.69100000  * -50.01400000  *
   898       H         68.96900000  *  142.01200000  * -48.98400000  *
   899       N         68.72400000  *  142.47200000  * -51.05500000  *
   900       H         68.47200000  *  143.44500000  * -51.00700000  *
   901       C         68.85400000  *  141.75000000  * -52.15500000  *
   902       H         68.77100000  *  142.12600000  * -53.16500000  *
   903       C         71.52100000  *  138.65700000  * -51.58300000  *
   904       O         72.28000000  *  139.38000000  * -50.94700000  *
   905       N         71.11400000  *  137.47100000  * -51.14500000  *
   906       H         70.37100000  *  137.01600000  * -51.66500000  *
   907       C         71.55500000  *  136.88000000  * -49.87700000  *
   908       H         71.18200000  *  135.84900000  * -49.87900000  *
   909       C         73.07600000  *  136.85300000  * -49.83700000  *
   910       H         73.53100000  *  137.83300000  * -49.86900000  *
   911       H         73.36600000  *  136.47900000  * -48.85100000  *
   912       C         73.64700000  *  135.85900000  * -50.81700000  *
   913       H         73.29800000  *  134.87100000  * -50.67200000  *
   914       H         73.21600000  *  136.10500000  * -51.78700000  *
   915       C         75.11700000  *  136.08400000  * -50.99900000  *
   916       H         75.61200000  *  135.95400000  * -50.03300000  *
   917       H         75.49500000  *  135.33200000  * -51.69500000  *
   918       N         75.35800000  *  137.42700000  * -51.50600000  *
   919       H         74.62100000  *  138.12700000  * -51.38200000  *
   920       C         76.54800000  *  137.85900000  * -51.89000000  *
   921       N         77.59300000  *  137.04400000  * -51.81500000  *
   922       H         77.44700000  *  136.21200000  * -51.26800000  *
   923       H         78.49900000  *  137.44300000  * -51.92100000  *
   924       N         76.69000000  *  139.09300000  * -52.35600000  *
   925       H         75.86000000  *  139.69200000  * -52.33800000  *
   926       H         77.56200000  *  139.47800000  * -52.67100000  *
   927       C         71.03700000  *  137.42400000  * -48.54200000  *
   928       O         71.18700000  *  136.76800000  * -47.50900000  *
   929       N         70.43700000  *  138.60400000  * -48.51600000  *
   930       H         70.32800000  *  139.16900000  * -49.34700000  *
   931       C         69.93700000  *  139.07600000  * -47.23100000  *
   932       H         69.76500000  *  138.24900000  * -46.54100000  *
   933       C         70.93500000  *  140.04200000  * -46.56200000  *
   934       H         71.90900000  *  139.56600000  * -46.50900000  *
   935       H         71.04400000  *  140.94300000  * -47.17900000  *
   936       C         70.51300000  *  140.42800000  * -45.14700000  *
   937       O         70.17200000  *  139.51500000  * -44.35500000  *
   938       O         70.51000000  *  141.64400000  * -44.82500000  *
   939       C         68.58700000  *  139.73400000  * -47.37800000  *
   940       O         68.35000000  *  140.81000000  * -46.83500000  *
   941       N         67.68700000  *  139.08300000  * -48.11000000  *
   942       H         67.94300000  *  138.20800000  * -48.54500000  *
   943       C         66.35900000  *  139.64900000  * -48.29900000  *
   944       H         66.47700000  *  140.66700000  * -48.65900000  *
   945       C         65.54600000  *  138.81300000  * -49.28800000  *
   946       H         65.58300000  *  137.78400000  * -48.94500000  *
   947       H         64.50600000  *  139.14000000  * -49.25500000  *
   948       C         66.02700000  *  138.85500000  * -50.73600000  *
   949       H         67.06400000  *  138.52800000  * -50.78200000  *
   950       C         65.17300000  *  137.91700000  * -51.58300000  *
   951       H         64.15900000  *  138.30500000  * -51.68800000  *
   952       H         65.63400000  *  137.80700000  * -52.55000000  *
   953       H         65.13400000  *  136.93500000  * -51.11000000  *
   954       C         65.92100000  *  140.27700000  * -51.26400000  *
   955       H         66.42000000  *  140.99600000  * -50.63300000  *
   956       H         66.44200000  *  140.27500000  * -52.20900000  *
   957       H         64.88200000  *  140.56100000  * -51.39700000  *
   958       C         65.59400000  *  139.73400000  * -46.98200000  *
   959       O         65.58600000  *  138.79200000  * -46.16600000  *
   960       N         64.95700000  *  140.85600000  * -46.74400000  *
   961       H         64.96600000  *  141.58700000  * -47.44300000  *
   962       C         64.17500000  *  141.06900000  * -45.54100000  *
   963       H         63.56800000  *  140.17700000  * -45.39000000  *
   964       C         65.06200000  *  141.24800000  * -44.28900000  *
   965       H         64.43200000  *  141.32500000  * -43.40300000  *
   966       H         65.65900000  *  140.34400000  * -44.16400000  *
   967       C         66.00400000  *  142.45900000  * -44.31700000  *
   968       H         66.43100000  *  142.57000000  * -45.31100000  *
   969       H         65.44900000  *  143.36100000  * -44.06300000  *
   970       C         67.14600000  *  142.23400000  * -43.31800000  *
   971       H         66.73400000  *  142.00700000  * -42.33200000  *
   972       H         67.72500000  *  141.37300000  * -43.66100000  *
   973       C         68.05900000  *  143.45900000  * -43.21200000  *
   974       H         68.15500000  *  143.91900000  * -44.20000000  *
   975       H         67.58600000  *  144.19200000  * -42.54800000  *
   976       N         69.40000000  *  143.07100000  * -42.70100000  *
   977       H         69.87900000  *  142.46600000  * -43.38400000  *
   978       H         69.97500000  *  143.88500000  * -42.52500000  *
   979       H         69.31800000  *  142.56300000  * -41.83000000  *
   980       C         63.26800000  *  142.23100000  * -45.83500000  *
   981       O         63.62600000  *  143.07500000  * -46.65800000  *
   982       N         62.11200000  *  142.30300000  * -45.18600000  *
   983       C         61.62600000  *  141.34600000  * -44.17100000  *
   984       H         62.10000000  *  141.53200000  * -43.20900000  *
   985       H         61.74500000  *  140.31100000  * -44.47600000  *
   986       C         60.16400000  *  141.66900000  * -44.09500000  *
   987       H         59.73700000  *  141.34900000  * -43.14300000  *
   988       H         59.63700000  *  141.20600000  * -44.93200000  *
   989       C         60.16000000  *  143.18900000  * -44.24800000  *
   990       H         60.51600000  *  143.64900000  * -43.32100000  *
   991       H         59.20200000  *  143.56500000  * -44.57400000  *
   992       C         61.14500000  *  143.38000000  * -45.40300000  *
   993       H         60.63400000  *  143.20500000  * -46.34500000  *
   994       C         61.77100000  *  144.77100000  * -45.44800000  *
   995       O         61.39200000  *  145.58400000  * -46.27300000  *
   996       N         62.73300000  *  145.08900000  * -44.56300000  *
   997       H         62.98000000  *  144.39900000  * -43.86900000  *
   998       C         63.45200000  *  146.38600000  * -44.54000000  *
   999       H         62.72100000  *  147.19300000  * -44.45800000  *
  1000       C         64.39400000  *  146.45700000  * -43.32400000  *
  1001       H         65.08200000  *  145.61300000  * -43.35700000  *
  1002       H         64.98700000  *  147.37100000  * -43.40100000  *
  1003       C         63.68000000  *  146.48500000  * -41.96700000  *
  1004       H         62.98300000  *  147.32400000  * -41.95400000  *
  1005       H         63.11900000  *  145.56300000  * -41.83000000  *
  1006       C         64.66900000  *  146.62300000  * -40.80800000  *
  1007       O         65.68800000  *  145.94700000  * -40.74100000  *
  1008       N         64.41400000  *  147.48400000  * -39.84800000  *
  1009       H         65.07800000  *  147.56500000  * -39.09100000  *
  1010       H         63.60500000  *  148.08400000  * -39.89000000  *
  1011       C         64.30500000  *  146.67300000  * -45.79500000  *
  1012       O         64.54900000  *  147.82800000  * -46.13400000  *
  1013       N         64.76600000  *  145.62500000  * -46.48100000  *
  1014       H         64.45100000  *  144.70800000  * -46.19800000  *
  1015       C         65.54000000  *  145.69100000  * -47.72100000  *
  1016       H         66.10000000  *  146.62800000  * -47.75600000  *
  1017       C         66.55600000  *  144.51900000  * -47.75200000  *
  1018       H         66.06300000  *  143.59500000  * -47.46100000  *
  1019       H         66.91200000  *  144.37900000  * -48.77100000  *
  1020       C         67.80000000  *  144.72400000  * -46.89600000  *
  1021       O         68.11800000  *  145.81700000  * -46.45200000  *
  1022       N         68.55900000  *  143.68100000  * -46.63500000  *
  1023       H         69.44300000  *  143.83400000  * -46.17700000  *
  1024       H         68.30300000  *  142.72900000  * -46.88300000  *
  1025       C         64.63300000  *  145.70300000  * -48.97000000  *
  1026       O         65.15400000  *  145.61500000  * -50.08000000  *
  1027       N         63.30000000  *  145.80300000  * -48.83400000  *
  1028       H         62.89500000  *  145.87300000  * -47.90900000  *
  1029       C         62.40600000  *  145.84500000  * -49.97900000  *
  1030       H         62.94700000  *  145.74800000  * -50.91900000  *
  1031       C         61.36900000  *  144.72100000  * -49.88900000  *
  1032       H         60.76900000  *  144.86100000  * -48.99200000  *
  1033       H         60.74400000  *  144.79800000  * -50.77200000  *
  1034       C         62.03600000  *  143.32400000  * -49.85900000  *
  1035       H         62.67100000  *  143.24000000  * -48.98800000  *
  1036       C         61.00200000  *  142.26000000  * -49.77100000  *
  1037       H         60.24600000  *  142.42800000  * -50.53400000  *
  1038       H         61.44700000  *  141.27100000  * -49.89000000  *
  1039       H         60.52000000  *  142.31900000  * -48.79800000  *
  1040       C         62.89500000  *  143.12600000  * -51.08400000  *
  1041       H         63.82900000  *  143.66800000  * -50.95600000  *
  1042       H         63.12900000  *  142.06900000  * -51.20900000  *
  1043       H         62.39300000  *  143.49200000  * -51.96600000  *
  1044       C         61.76300000  *  147.21800000  * -49.95200000  *
  1045       O         61.15000000  *  147.60200000  * -48.96600000  *
  1046       N         61.89100000  *  147.98300000  * -51.03000000  *
  1047       H         62.38600000  *  147.61100000  * -51.83500000  *
  1048       C         61.44500000  *  149.37500000  * -51.06500000  *
  1049       H         61.06300000  *  149.67700000  * -50.09200000  *
  1050       C         62.61800000  *  150.28900000  * -51.40500000  *
  1051       H         62.94800000  *  150.07500000  * -52.42200000  *
  1052       H         62.25500000  *  151.31400000  * -51.36200000  *
  1053       C         63.81600000  *  150.14400000  * -50.46200000  *
  1054       H         64.26700000  *  149.16100000  * -50.58600000  *
  1055       C         64.82500000  *  151.20600000  * -50.84900000  *
  1056       H         64.45800000  *  152.18000000  * -50.53300000  *
  1057       H         65.77200000  *  150.98500000  * -50.36800000  *
  1058       H         64.97300000  *  151.23100000  * -51.92200000  *
  1059       C         63.46200000  *  150.34500000  * -48.99100000  *
  1060       H         62.91400000  *  149.48100000  * -48.62800000  *
  1061       H         64.36600000  *  150.44300000  * -48.39500000  *
  1062       H         62.84500000  *  151.23500000  * -48.87600000  *
  1063       C         60.32100000  *  149.56100000  * -52.06500000  *
  1064       O         60.41700000  *  149.10200000  * -53.19000000  *
  1065       N         59.26800000  *  150.25600000  * -51.67700000  *
  1066       H         59.36500000  *  150.76300000  * -50.80000000  *
  1067       C         58.08300000  *  150.44700000  * -52.50800000  *
  1068       H         58.17300000  *  149.92400000  * -53.45700000  *
  1069       C         56.81900000  *  149.90600000  * -51.78600000  *
  1070       H         55.94300000  *  150.08700000  * -52.41500000  *
  1071       C         56.95000000  *  148.40400000  * -51.54300000  *
  1072       H         57.75300000  *  148.18300000  * -50.83300000  *
  1073       H         56.01300000  *  148.00400000  * -51.15200000  *
  1074       H         57.15800000  *  147.91500000  * -52.48900000  *
  1075       C         56.64700000  *  150.60600000  * -50.43300000  *
  1076       H         57.48200000  *  150.38000000  * -49.77500000  *
  1077       H         56.60500000  *  151.68300000  * -50.57600000  *
  1078       C         55.37000000  *  150.22200000  * -49.68600000  *
  1079       H         55.48900000  *  149.24800000  * -49.22200000  *
  1080       H         55.17000000  *  150.96500000  * -48.91000000  *
  1081       H         54.52900000  *  150.16800000  * -50.38500000  *
  1082       C         57.87200000  *  151.93000000  * -52.81700000  *
  1083       O         58.38200000  *  152.79400000  * -52.10000000  *
  1084       N         57.14900000  *  152.22000000  * -53.89700000  *
  1085       H         56.70500000  *  151.48200000  * -54.43300000  *
  1086       C         56.84100000  *  153.60200000  * -54.22700000  *
  1087       H         57.16800000  *  154.27800000  * -53.43100000  *
  1088       C         57.50400000  *  154.05300000  * -55.54100000  *
  1089       H         57.21800000  *  155.07000000  * -55.80500000  *
  1090       H         58.58200000  *  154.04400000  * -55.38800000  *
  1091       C         57.19300000  *  153.14600000  * -56.70100000  *
  1092       O         56.13500000  *  152.53500000  * -56.76400000  *
  1093       N         58.11500000  *  153.07200000  * -57.64100000  *
  1094       H         57.83300000  *  152.61700000  * -58.48600000  *
  1095       H         58.88600000  *  153.71500000  * -57.62100000  *
  1096       C         55.33100000  *  153.75800000  * -54.32100000  *
  1097       O         54.57600000  *  152.79900000  * -54.11400000  *
  1098       N         54.88500000  *  154.97100000  * -54.62100000  *
  1099       H         55.52100000  *  155.73600000  * -54.79200000  *
  1100       C         53.46400000  *  155.24700000  * -54.72300000  *
  1101       H         52.92700000  *  154.82600000  * -53.87200000  *
  1102       C         53.20900000  *  156.78000000  * -54.75500000  *
  1103       H         52.16900000  *  156.98000000  * -55.02600000  *
  1104       C         53.47800000  *  157.39700000  * -53.41000000  *
  1105       H         54.52100000  *  157.25500000  * -53.13000000  *
  1106       H         53.26600000  *  158.46500000  * -53.44600000  *
[...]
 1005  H   0.85546
 1006  C   1.06690   0.81259   0.75069   0.79829
 1007  O   1.88362   1.36148   1.53824   1.79882
 1008  N   1.52724   1.34775   1.42877   1.32691
 1009  H   0.66478
 1010  H   0.69290
 1011  C   1.08418   0.77024   0.79244   0.81874
 1012  O   1.88926   1.61676   1.28457   1.71100
 1013  N   1.55300   1.52397   1.20391   1.30473
 1014  H   0.67239
 1015  C   1.07109   0.94327   1.09441   0.81950
 1016  H   0.80147
 1017  C   1.07014   1.05182   1.09089   1.16108
 1018  H   0.83541
 1019  H   0.80617
 1020  C   1.06196   0.81434   0.77978   0.76790
 1021  O   1.88191   1.75459   1.36647   1.59110
 1022  N   1.53343   1.30759   1.19504   1.60895
 1023  H   0.66753
 1024  H   0.65753
 1025  C   1.09110   0.78507   0.71156   0.85303
 1026  O   1.87700   1.77243   1.62445   1.38992
 1027  N   1.54126   1.12624   1.66019   1.18415
 1028  H   0.64972
 1029  C   1.06948   0.96916   0.98285   0.97405
 1030  H   0.81481
 1031  C   1.06728   1.06545   0.99412   1.17573
 1032  H   0.83282
 1033  H   0.84894
 1034  C   1.04098   1.01083   0.95011   1.06007
 1035  H   0.85379
 1036  C   1.04882   1.12521   1.11276   1.17372
 1037  H   0.84854
 1038  H   0.85705
 1039  H   0.86074
 1040  C   1.05134   1.14403   1.16485   1.10165
 1041  H   0.84344
 1042  H   0.86435
 1043  H   0.85164
 1044  C   1.07644   0.75370   0.84275   0.75880
 1045  O   1.87361   1.52664   1.79199   1.43810
 1046  N   1.54602   1.56050   1.17334   1.24732
 1047  H   0.64968
 1048  C   1.06518   0.98609   0.82424   1.10428
 1049  H   0.80847
 1050  C   1.06433   1.02481   1.10855   1.12000
 1051  H   0.85238
 1052  H   0.83971
 1053  C   1.04810   0.96807   1.06143   0.97980
 1054  H   0.86962
 1055  C   1.05345   1.12406   1.13398   1.15920
 1056  H   0.84262
 1057  H   0.86058
 1058  H   0.86393
 1059  C   1.05465   1.17898   1.18609   1.03356
 1060  H   0.83578
 1061  H   0.84864
 1062  H   0.84348
 1063  C   1.07509   0.79935   0.74295   0.81484
 1064  O   1.86752   1.83476   1.63198   1.34789
 1065  N   1.54210   1.18874   1.46593   1.29719
 1066  H   0.63984
 1067  C   1.07611   0.89356   1.00241   1.04041
 1068  H   0.81423
 1069  C   1.06490   1.01337   0.99110   1.02294
 1070  H   0.84075
 1071  C   1.05434   1.18022   1.03638   1.17310
 1072  H   0.84439
 1073  H   0.84618
 1074  H   0.85579
 1075  C   1.05408   1.07382   1.11892   1.03002
 1076  H   0.84542
 1077  H   0.86198
 1078  C   1.05247   1.08504   1.16048   1.13135
 1079  H   0.84594
 1080  H   0.87568
 1081  H   0.84773
 1082  C   1.08749   0.74061   0.88987   0.74129
 1083  O   1.88701   1.56923   1.57733   1.55338
 1084  N   1.54371   1.50803   1.14217   1.34181
 1085  H   0.63854
 1086  C   1.06104   0.99467   0.88833   1.01468
 1087  H   0.80627
 1088  C   1.07115   1.17424   1.11375   1.04442
 1089  H   0.83027
 1090  H   0.81811
 1091  C   1.06748   0.77879   0.79280   0.82229
 1092  O   1.88783   1.30630   1.50506   1.80271
 1093  N   1.53688   1.31204   1.52193   1.27970
 1094  H   0.69240
 1095  H   0.69586
 1096  C   1.08069   0.88482   0.77790   0.75175
 1097  O   1.89448   1.62403   1.43430   1.52573
 1098  N   1.54121   1.14540   1.19504   1.69381
 1099  H   0.67738
 1100  C   1.08541   0.83278   1.04097   1.09622
 1101  H   0.80883
 1102  C   1.08455   0.98701   0.88300   0.88943
 1103  H   0.85761
 1104  C   1.05303   1.18505   1.17310   1.05400
 1105  H   0.83978
 1106  H   0.83145
 1107  H   0.83356
 1108  O   1.85142   1.58095   1.82061   1.32278
 1109  H   0.67536
 1110  C   1.07455   0.81035   0.77012   0.81919
 1111  O   1.88602   1.23125   1.61592   1.81371
 1112  N   1.53432   1.18197   1.58166   1.22147
 1113  H   0.69168
 1114  C   1.05385   1.13288   1.13995   0.88743
 1115  H   0.84095
 1116  H   0.87151
 1117  H   0.83527
 1118  H   0.86768
 1119  C   1.10017   0.76478   0.75350   0.92054
 1120  O   1.88716   1.67008   1.57190   1.45706
 1121  N   1.54652   1.44409   1.35125   1.20821
 1122  H   0.67413
 1123  C   1.08028   0.92956   1.08572   0.92412
 1124  H   0.81014
 1125  C   1.07314   1.07890   0.95444   0.98278
 1126  H   0.84450
 1127  C   1.05753   1.18821   1.08026   1.12360
 1128  H   0.83764
 1129  H   0.85381
 1130  H   0.85844
 1131  C   1.05397   1.07456   1.13480   1.01841
 1132  H   0.85574
 1133  H   0.85321
 1134  C   1.04893   1.14430   1.14767   1.09032
 1135  H   0.85570
 1136  H   0.85925
 1137  H   0.84937
 1138  C   1.07506   0.84248   0.74920   0.79233
 1139  O   1.88228   1.88192   1.48217   1.36286
 1140  N   1.54648   1.09814   1.54198   1.34250
 1141  H   0.63189
 1142  C   1.06854   0.84989   1.04244   1.03936
 1143  H   0.81373
 1144  C   1.05974   1.08874   1.05707   1.08974
 1145  H   0.83240
 1146  H   0.84601
 1147  C   1.05093   1.08877   1.03275   1.08378
 1148  H   0.85858
 1149  H   0.83975
 1150  C   1.06117   1.07627   1.05806   1.09613
 1151  H   0.82556
 1152  H   0.82569
 1153  C   1.08163   1.03072   0.99373   1.07607
 1154  H   0.83546
 1155  H   0.82750
 1156  N   1.46368   1.23226   1.24243   1.25539
 1157  H   0.66863
 1158  H   0.69255
 1159  H   0.72989
 1160  C   1.07947   0.77849   0.75117   0.82869
 1161  O   1.88197   1.76748   1.68863   1.28777
 1162  N   1.54484   1.33059   1.42920   1.22905
 1163  H   0.64222
 1164  C   1.06976   0.91826   0.95577   1.02976
 1165  H   0.83110
 1166  C   1.06261   1.09814   1.02027   1.13370
 1167  H   0.83440
 1168  H   0.84764
 1169  C   1.05388   1.07575   0.96031   0.95849
 1170  H   0.85452
 1171  C   1.06150   1.15506   1.13909   1.09658
 1172  H   0.86223
 1173  H   0.85287
 1174  H   0.84805
 1175  C   1.05712   1.17443   1.13642   1.09471
 1176  H   0.85051
 1177  H   0.85406
 1178  H   0.86018
 1179  C   1.08639   0.79162   0.80013   0.75803
 1180  O   1.88120   1.63224   1.59702   1.53785
 1181  N   1.54423   1.36316   1.44103   1.16244
 1182  H   0.64172
 1183  C   1.06680   0.91383   0.93000   1.04705
 1184  H   0.83114
 1185  C   1.05886   1.16235   1.07629   1.16278
 1186  H   0.81425
 1187  H   0.85505
 1188  H   0.82129
 1189  C   1.08958   0.78242   0.78905   0.74590
 1190  O   1.87239   1.83252   1.35547   1.58954
 1191  N   1.54751   1.18205   1.31515   1.50625
 1192  H   0.68802
 1193  C   1.07528   0.87671   1.07542   0.93873
 1194  H   0.83062
 1195  C   1.08007   1.14825   1.18147   1.00607
 1196  H   0.80511
 1197  H   0.82819
 1198  C   1.06902   0.73203   0.73254   0.69024
 1199  O   1.88836   1.76475   1.43094   1.63662
 1200  O   1.86839   1.72529   1.50422   1.79018
 1201  C   1.08883   0.81933   0.79624   0.75026
 1202  O   1.88759   1.28294   1.79971   1.56843
 1203  N   1.56662   1.29261   1.16971   1.54011
 1204  H   0.68031
 1205  C   1.07964   1.01778   0.91678   0.95392
 1206  H   0.84128
 1207  C   1.05585   1.07997   1.20351   0.95985
 1208  H   0.81495
 1209  H   0.81729
 1210  C   1.07377   0.97090   0.97725   0.97039
 1211  C   1.08857   1.03605   1.04196   1.01347
 1212  H   0.84219
 1213  C   1.08464   0.99243   1.05616   1.01749
 1214  H   0.85946
 1215  C   1.08685   1.05799   0.99235   1.02864
 1216  H   0.84975
 1217  C   1.08962   1.03694   1.03367   0.98379
 1218  H   0.83078
 1219  C   1.08699   0.98561   1.05963   1.02013
 1220  H   0.84277
 1221  C   1.09029   0.80356   0.77420   0.76242
 1222  O   1.88496   1.44626   1.56392   1.71423
 1223  N   1.53963   1.41509   1.43569   1.13555
 1224  H   0.67921
 1225  C   1.06880   0.98270   1.07094   0.98589
 1226  H   0.81064
 1227  H   0.80376
 1228  C   1.08004   0.82926   0.77418   0.70132
 1229  O   1.87523   1.84509   1.33366   1.62735
 1230  N   1.55629   1.29243   1.23485   1.44030
 1231  H   0.66806
 1232  C   1.07731   0.89945   1.03802   0.96179
 1233  H   0.84824
 1234  C   1.06842   1.11149   0.94567   1.18079
 1235  H   0.82861
 1236  H   0.83483
 1237  C   1.05183   1.03134   0.96340   1.00752
 1238  H   0.86243
 1239  C   1.05600   1.16816   1.06348   1.16714
 1240  H   0.85639
 1241  H   0.84412
 1242  H   0.85292
 1243  C   1.05577   1.17189   1.18827   1.04736
 1244  H   0.84519
 1245  H   0.83711
 1246  H   0.86056
 1247  C   1.09743   0.86636   0.76832   0.73956
 1248  O   1.88374   1.31190   1.77527   1.56800
 1249  N   1.58482   1.28141   1.24137   1.52987
 1250  H   0.66417
 1251  C   1.06942   0.95962   0.99007   0.96198
 1252  H   0.82524
 1253  C   1.05734   1.14345   1.09964   1.16270
 1254  H   0.86474
 1255  H   0.82106
 1256  H   0.81182
 1257  C   1.07880   0.84935   0.76921   0.78350
 1258  O   1.89118   1.45726   1.52833   1.62178
 1259  N   1.54611   1.31337   1.54418   1.15321
 1260  H   0.70118
 1261  C   1.06026   0.93098   1.14794   1.09015
 1262  H   0.81724
 1263  H   0.85559
 1264  H   0.84429
 1265  H   0.88509
 1266  C   1.09725   0.75866   0.82376   0.87003
 1267  O   1.89047   1.46993   1.31235   1.86351
 1268  N   1.54394   1.50184   1.35459   1.15117
 1269  H   0.69034
 1270  C   1.07225   1.10776   0.96307   0.82236
 1271  H   0.80439
 1272  C   1.05790   1.09594   1.03298   1.13991
 1273  H   0.84141
 1274  H   0.83428
 1275  C   1.06454   0.97610   0.94771   0.96751
 1276  C   1.08135   1.01347   0.99079   1.05583
 1277  H   0.84817
 1278  C   1.08026   1.03485   1.02508   0.99577
 1279  H   0.85627
 1280  C   1.07821   1.00860   1.05284   1.02421
 1281  H   0.86177
 1282  C   1.07777   1.02495   1.00525   1.05002
 1283  H   0.86367
 1284  C   1.08047   1.06030   1.02576   0.99961
 1285  H   0.84766
 1286  C   1.08364   0.77246   0.80326   0.81739
 1287  O   1.89079   1.50334   1.62954   1.48197
 1288  N   1.53977   1.18243   1.36150   1.44848
 1289  H   0.67934
 1290  C   1.05560   1.13015   0.97858   0.99587
 1291  H   0.83571
 1292  H   0.79624
 1293  C   1.07760   0.78700   0.75856   0.80374
 1294  O   1.87344   1.54265   1.38675   1.83680
 1295  N   1.53548   1.40920   1.37230   1.18529
 1296  H   0.67072
 1297  C   1.07391   1.00536   1.18567   0.89159
 1298  H   0.81579
 1299  H   0.81528
 1300  C   1.07891   0.79686   0.76139   0.81358
 1301  O   1.89012   1.46390   1.49149   1.68867
 1302  N   1.56552   1.46210   1.16921   1.27052
 1303  C   1.06824   1.06587   0.87107   1.05074
 1304  H   0.84426
 1305  H   0.84903
 1306  C   1.05755   1.03530   1.14338   1.06239
 1307  H   0.83967
 1308  H   0.79868
 1309  C   1.05943   1.09401   0.99354   1.15162
 1310  H   0.85810
 1311  H   0.83283
 1312  C   1.07054   1.04403   0.98675   0.88028
 1313  H   0.83383
 1314  C   1.09131   0.79085   0.79437   0.82252
 1315  O   1.89224   1.35943   1.36157   1.85865
 1316  N   1.54615   1.41380   1.50940   1.12657
 1317  H   0.68442
 1318  C   1.07857   1.04419   1.12154   0.88184
 1319  H   0.80280
 1320  H   0.82136
 1321  C   1.08610   0.82894   0.73287   0.78189
 1322  O   1.88600   1.69520   1.71565   1.32125
 1323  N   1.55275   1.23485   1.41508   1.34523
 1324  H   0.68884
 1325  C   1.07637   0.85849   1.06003   0.98266
 1326  H   0.82236
 1327  C   1.05904   1.17686   1.07705   0.96483
 1328  H   0.84764
 1329  H   0.82250
 1330  C   1.05756   1.11776   1.05733   1.05032
 1331  H   0.83366
 1332  H   0.87477
 1333  C   1.06934   1.10904   1.11911   0.74606
 1334  H   0.83582
 1335  H   0.80743
 1336  N   1.53393   1.59278   1.27306   1.10591
 1337  H   0.67029
 1338  C   0.97633   0.84037   0.80648   0.79176
 1339  N   1.49889   1.55655   1.25216   1.24771
 1340  H   0.64585
 1341  H   0.65739
 1342  N   1.50166   1.59050   1.35405   1.14269
 1343  H   0.66380
 1344  H   0.65940
 1345  C   1.08051   0.77711   0.78166   0.84622
 1346  O   1.89145   1.44900   1.63055   1.54521
 1347  N   1.54291   1.55362   1.19472   1.24172
 1348  H   0.68941
 1349  C   1.09094   1.00818   1.01051   0.91210
 1350  H   0.80276
 1351  C   1.08446   0.92388   0.92627   0.88699
 1352  H   0.85294
 1353  C   1.05834   1.10765   1.12633   1.20039
 1354  H   0.82441
 1355  H   0.82803
 1356  H   0.84234
 1357  O   1.84286   1.59265   1.64031   1.56012
 1358  H   0.61087
 1359  C   1.07951   0.81714   0.79835   0.77238
 1360  O   1.88905   1.52454   1.78904   1.35880
 1361  N   1.55419   1.33137   1.29548   1.37712
 1362  H   0.64975
 1363  C   1.07366   0.97534   0.92467   1.00635
 1364  H   0.83108
 1365  C   1.05689   1.09299   1.06730   1.08521
 1366  H   0.85189
 1367  H   0.83345
 1368  C   1.05791   0.97103   0.97390   1.08282
 1369  C   1.08212   0.97469   1.07527   0.99635
 1370  H   0.85110
 1371  C   1.08531   1.08137   0.99863   1.00209
 1372  H   0.80333
 1373  C   1.06957   0.83482   0.89455   0.86487
 1374  O   1.84113   1.46089   1.54278   1.69799
 1375  H   0.59668
 1376  C   1.07115   0.99583   1.09213   1.08586
 1377  H   0.85587
 1378  C   1.07727   1.05281   1.00361   1.02101
 1379  H   0.87715
 1380  C   1.08210   0.79279   0.75812   0.82369
 1381  O   1.88960   1.35959   1.51333   1.81055
 1382  N   1.55303   1.20477   1.61372   1.14979
 1383  H   0.65935
 1384  C   1.08592   1.09416   1.05465   0.83735
 1385  H   0.85017
 1386  C   1.08024   0.85397   0.86994   1.00672
 1387  H   0.87859
 1388  C   1.05615   1.09558   1.13637   1.19008
 1389  H   0.83144
 1390  H   0.85666
 1391  H   0.85272
 1392  O   1.84995   1.30833   1.76188   1.64730
 1393  H   0.59878
 1394  C   1.08842   0.86130   0.77082   0.80812
 1395  O   1.89641   1.23721   1.65250   1.60037
 1396  N   1.54728   1.20479   1.30477   1.51989
 1397  H   0.69398
 1398  C   1.06725   1.01930   1.01447   1.05281
 1399  H   0.88130
 1400  H   0.84551
 1401  C   1.06956   0.85146   0.75628   0.78804
 1402  O   1.89314   1.66794   1.37984   1.51113
 1403  N   1.55714   1.14876   1.53499   1.33748
 1404  H   0.68940
 1405  C   1.07229   0.82246   0.97458   1.14204
 1406  H   0.83254
 1407  C   1.05671   1.16618   1.00904   1.02524
 1408  H   0.84891
 1409  H   0.82931
 1410  C   1.06030   1.20396   0.98257   1.16508
 1411  H   0.83409
 1412  H   0.83629
 1413  C   1.06197   0.73962   0.72245   0.73478
 1414  O   1.89256   1.42700   1.79697   1.60809
 1415  O   1.88362   1.53609   1.58085   1.81819
 1416  C   1.09488   0.76518   0.86732   0.74676
 1417  O   1.88694   1.65420   1.65745   1.40352
 1418  N   1.54799   1.31560   1.19226   1.48953
 1419  H   0.67090
 1420  C   1.07026   1.04636   0.86923   1.02956
 1421  H   0.87201
 1422  C   1.05523   1.03141   1.04094   0.95559
 1423  H   0.82448
 1424  C   1.05492   1.16598   1.03683   1.20509
 1425  H   0.86130
 1426  H   0.84219
 1427  H   0.82087
 1428  C   1.05353   1.16770   1.15509   1.07938
 1429  H   0.85324
 1430  H   0.84010
 1431  H   0.87310
 1432  C   1.07372   0.79262   0.74903   0.84320
 1433  O   1.88977   1.32169   1.58655   1.74360
 1434  N   1.53882   1.27322   1.49335   1.21316
 1435  H   0.68187
 1436  C   1.07440   1.00926   1.04596   0.86599
 1437  H   0.84267
 1438  C   1.06134   1.03042   1.01673   0.98009
 1439  H   0.83910
 1440  C   1.05312   1.18230   1.10080   1.10928
 1441  H   0.83358
 1442  H   0.84916
 1443  H   0.86541
 1444  C   1.05653   1.19167   1.16306   1.04347
 1445  H   0.86015
 1446  H   0.83746
 1447  H   0.83018
 1448  C   1.08279   0.80945   0.79858   0.76228
 1449  O   1.88745   1.79497   1.44288   1.43304
 1450  N   1.53609   1.24326   1.43812   1.31512
 1451  H   0.68453
 1452  C   1.07801   0.90339   0.96820   1.14030
 1453  H   0.81640
 1454  C   1.07868   0.93151   0.84229   0.98963
 1455  H   0.87290
 1456  C   1.05580   1.10016   1.13388   1.18143
 1457  H   0.84048
 1458  H   0.82851
 1459  H   0.84566
 1460  O   1.85209   1.45299   1.47037   1.77151
 1461  H   0.66536
 1462  C   1.07537   0.76593   0.82453   0.81397
 1463  O   1.88680   1.45199   1.86770   1.32164
 1464  N   1.53709   1.58495   1.12332   1.28799
 1465  H   0.68740
 1466  C   1.05221   1.16004   0.87629   1.13274
 1467  H   0.82178
 1468  H   0.85378
 1469  H   0.86648
 1470  H   0.86945
 1471  C   1.10170   0.76407   0.81168   0.89549
 1472  O   1.88717   1.42774   1.33487   1.87150
 1473  N   1.55038   1.52604   1.36326   1.14165
 1474  H   0.68709
 1475  C   1.07790   1.09037   1.02968   0.79374
 1476  H   0.81281
 1477  C   1.05937   1.13180   1.00676   1.09911
 1478  H   0.81532
 1479  H   0.82661
 1480  C   1.06836   0.97621   0.98740   0.99797
 1481  C   1.08105   0.99057   1.01963   1.00409
 1482  H   0.84565
 1483  C   1.07572   1.10235   1.04762   1.06499
 1484  H   0.82541
 1485  C   1.07251   0.88883   0.88828   0.88315
 1486  O   1.84177   1.33082   1.60083   1.72838
 1487  H   0.65416
 1488  C   1.07533   0.98835   1.10174   1.09817
 1489  H   0.83422
 1490  C   1.08721   1.07439   0.98115   0.97185
 1491  H   0.84039
 1492  C   1.08201   0.80328   0.78087   0.81048
 1493  O   1.89297   1.77881   1.64270   1.23672
 1494  N   1.53510   1.26481   1.54064   1.17727
 1495  H   0.69016
 1496  C   1.05805   0.92153   1.08510   1.15577
 1497  H   0.83208
 1498  H   0.85588
 1499  H   0.85037
 1500  H   0.86593
 1501  C   1.10297   0.82978   0.87807   0.75940
 1502  O   1.89043   1.34355   1.83484   1.42345
 1503  N   1.55421   1.37693   1.20567   1.47146
 1504  H   0.69150
 1505  C   1.07913   0.97641   0.84385   1.12477
 1506  H   0.81504
 1507  C   1.05898   0.98058   1.00841   1.06734
 1508  H   0.86937
 1509  C   1.05192   1.15803   1.05419   1.18178
 1510  H   0.83705
 1511  H   0.85323
 1512  H   0.83597
 1513  C   1.04804   1.00389   1.12240   1.09031
 1514  H   0.86263
 1515  H   0.86402
 1516  C   1.04889   1.11947   1.13503   1.13896
 1517  H   0.85400
 1518  H   0.85487
 1519  H   0.85432
 1520  C   1.07245   0.86800   0.76266   0.76278
 1521  O   1.88564   1.53004   1.48962   1.60566
 1522  N   1.54257   1.16434   1.44804   1.40503
 1523  H   0.70091
 1524  C   1.06815   0.88845   1.14585   1.09858
 1525  H   0.85024
 1526  H   0.86153
 1527  H   0.82831
 1528  H   0.86153
 1529  C   1.10310   0.85217   0.75658   0.84830
 1530  O   1.89242   1.78019   1.57452   1.31036
 1531  N   1.53872   1.27074   1.41808   1.30163
 1532  H   0.68204
 1533  C   1.05772   0.87967   1.04722   1.01908
 1534  H   0.82188
 1535  C   1.06042   1.03596   1.11688   1.10604
 1536  H   0.84139
 1537  H   0.84455
 1538  C   1.04475   0.99085   0.96549   1.05998
 1539  H   0.87864
 1540  C   1.05432   1.16085   1.06587   1.18128
 1541  H   0.84349
 1542  H   0.84619
 1543  H   0.85093
 1544  C   1.05256   1.12492   1.16950   1.11039
 1545  H   0.86013
 1546  H   0.84693
 1547  H   0.84028
 1548  C   1.08005   0.74553   0.87750   0.77781
 1549  O   1.88739   1.52410   1.42220   1.71289
 1550  N   1.54029   1.59598   1.20274   1.20222
 1551  H   0.67687
 1552  C   1.06917   1.04500   0.93889   0.93200
 1553  H   0.81944
 1554  C   1.05602   1.16678   1.05768   1.01466
 1555  H   0.83552
 1556  H   0.83239
 1557  C   1.05725   1.12840   1.10516   1.02238
 1558  H   0.84002
 1559  H   0.82539
 1560  C   1.06732   1.16572   0.93400   0.90750
 1561  H   0.82029
 1562  H   0.83860
 1563  N   1.52346   1.14361   1.42318   1.39810
 1564  H   0.66760
 1565  C   0.99024   0.79775   0.80735   0.81348
 1566  N   1.51436   1.10588   1.46134   1.48334
 1567  H   0.64470
 1568  H   0.65929
 1569  N   1.50487   1.23284   1.41695   1.42972
 1570  H   0.66052
 1571  H   0.65734
 1572  C   1.07533   0.86278   0.78962   0.77453
 1573  O   1.88877   1.59492   1.59563   1.52399
 1574  N   1.53735   1.18879   1.25303   1.49295
 1575  H   0.67762
 1576  C   1.08116   0.82509   1.13542   1.04122
 1577  H   0.82641
 1578  C   1.05987   1.15837   1.08182   0.99999
 1579  H   0.84382
 1580  H   0.84987
 1581  C   1.04878   1.08033   0.97248   0.94597
 1582  H   0.87000
 1583  C   1.05530   1.15863   1.15748   1.09147
 1584  H   0.86884
 1585  H   0.86651
 1586  H   0.85323
 1587  C   1.05664   1.16266   1.09203   1.15436
 1588  H   0.84553
 1589  H   0.86988
 1590  H   0.84319
 1591  C   1.07450   0.75891   0.76285   0.73162
 1592  O   1.88862   1.43313   1.84423   1.57985
 1593  O   1.89203   1.52688   1.54845   1.77874

 **********************
 *                    *
 * JOB ENDED NORMALLY *
 *                    *
 **********************



 TOTAL JOB TIME:            55.11 SECONDS

 == MOPAC DONE ==
