 *******************************************************************************
 **                                                                           **
 **                              MOPAC v23.2.2                                **
 **                                                                           **
 *******************************************************************************
 **          Digital Object Identifier (DOI): 10.5281/zenodo.6511958          **
 **    Visit the DOI location for information on how to cite this program.    **
 *******************************************************************************

                              PM7 CALCULATION RESULTS

 *******************************************************************************
 *  CALCULATION DONE: (MAX THREADS = 12)             Tue Jan 27 15:46:06 2026  *
 *  PM7        - The PM7 Hamiltonian to be used
 *
 *
 *
 *                 CHARGE ON SYSTEM = +2
 *
 *
 *
 *  EPS=1      - USE ANDREAS KLAMT'S COSMO IMPLICIT SOLVATION MODEL
 *  1SCF       - DO 1 SCF AND THEN STOP 
 *  T=         - A TIME OF 172800.0 SECONDS REQUESTED
 *  DUMP=N     - RESTART FILE WRITTEN EVERY 7200.0 SECONDS REQUESTED
 *******************************************************************************
PM7 1SCF CHARGE=2 EPS=1


   ATOM   CHEMICAL          X               Y               Z
  NUMBER   SYMBOL      (ANGSTROMS)     (ANGSTROMS)     (ANGSTROMS)

     1       H         71.69100000  *  165.23700000  * -45.36000000  *
     2       C         70.72700000  *  165.64400000  * -45.02500000  *
     3       O         70.67100000  *  166.69300000  * -44.40000000  *
     4       N         69.64800000  *  164.94600000  * -45.35400000  *
     5       H         69.74300000  *  164.08600000  * -45.86500000  *
     6       C         68.31800000  *  165.37700000  * -44.95100000  *
     7       H         68.30400000  *  166.44500000  * -44.75000000  *
     8       C         67.27900000  *  165.08100000  * -46.05800000  *
     9       H         67.27200000  *  164.02200000  * -46.29800000  *
    10       C         65.89200000  *  165.46600000  * -45.59200000  *
    11       H         65.46400000  *  166.22900000  * -46.24500000  *
    12       H         65.23700000  *  164.60600000  * -45.62700000  *
    13       H         65.87600000  *  165.89500000  * -44.58400000  *
    14       C         67.63700000  *  165.85600000  * -47.31700000  *
    15       H         68.59400000  *  165.52900000  * -47.70800000  *
    16       H         66.87900000  *  165.66900000  * -48.07700000  *
    17       H         67.68800000  *  166.92100000  * -47.10100000  *
    18       C         67.91500000  *  164.66400000  * -43.65700000  *
    19       O         67.55300000  *  165.30600000  * -42.67600000  *
    20       N         67.98400000  *  163.33800000  * -43.65800000  *
    21       H         68.28400000  *  162.85200000  * -44.48600000  *
    22       C         67.62300000  *  162.54400000  * -42.48700000  *
    23       H         67.90600000  *  163.07600000  * -41.58100000  *
    24       C         66.12800000  *  162.23500000  * -42.45900000  *
    25       H         65.92600000  *  161.47400000  * -43.20900000  *
    26       H         65.88500000  *  161.80700000  * -41.48800000  *
    27       C         65.21300000  *  163.39800000  * -42.74000000  *
    28       H         65.33100000  *  164.15700000  * -41.96400000  *
    29       H         65.45900000  *  163.81400000  * -43.69700000  *
    30       C         63.76600000  *  162.97200000  * -42.82400000  *
    31       O         63.44700000  *  162.11400000  * -43.67900000  *
    32       O         62.94800000  *  163.49400000  * -42.03400000  *
    33       C         68.34700000  *  161.22200000  * -42.57700000  *
    34       O         68.73000000  *  160.78800000  * -43.66100000  *
    35       N         68.52400000  *  160.57500000  * -41.43500000  *
    36       H         68.03000000  *  160.89100000  * -40.60600000  *
    37       C         69.17300000  *  159.28200000  * -41.42100000  *
    38       H         69.95100000  *  159.22100000  * -42.17800000  *
    39       C         69.75600000  *  159.01000000  * -40.03200000  *
    40       H         70.21900000  *  159.94300000  * -39.71800000  *
    41       H         68.96300000  *  158.79100000  * -39.31600000  *
    42       C         70.79800000  *  157.89600000  * -39.98300000  *
    43       H         70.31100000  *  156.94100000  * -40.17400000  *
    44       H         71.53800000  *  158.07300000  * -40.76900000  *
    45       C         71.50100000  *  157.83200000  * -38.61800000  *
    46       H         70.74900000  *  157.59000000  * -37.86000000  *
    47       H         72.23100000  *  157.01800000  * -38.63800000  *
    48       C         72.18600000  *  159.16200000  * -38.26900000  *
    49       H         72.83200000  *  159.42500000  * -39.10900000  *
    50       H         71.41200000  *  159.93100000  * -38.15600000  *
    51       N         73.00000000  *  159.10500000  * -37.02500000  *
    52       H         73.70000000  *  158.37000000  * -37.07400000  *
    53       H         73.43800000  *  159.98800000  * -36.79300000  *
    54       H         72.39100000  *  158.85400000  * -36.25100000  *
    55       C         68.06200000  *  158.28700000  * -41.74800000  *
    56       O         67.16300000  *  158.08100000  * -40.94600000  *
    57       N         68.05200000  *  157.74400000  * -42.97000000  *
    58       H         68.84700000  *  157.92900000  * -43.56100000  *
    59       C         67.10600000  *  156.69200000  * -43.39500000  *
    60       H         66.09600000  *  157.10600000  * -43.39700000  *
    61       C         67.43100000  *  156.19400000  * -44.82200000  *
    62       H         68.51200000  *  156.17700000  * -44.94800000  *
    63       C         66.90800000  *  154.77900000  * -45.10300000  *
    64       H         65.83200000  *  154.74700000  * -44.94200000  *
    65       H         67.13100000  *  154.50500000  * -46.12600000  *
    66       H         67.39600000  *  154.04100000  * -44.46500000  *
    67       C         66.83900000  *  157.18300000  * -45.84000000  *
    68       H         65.75000000  *  157.10700000  * -45.83600000  *
    69       H         67.10200000  *  158.18400000  * -45.51300000  *
    70       C         67.34900000  *  156.99600000  * -47.27600000  *
    71       H         66.95500000  *  156.07800000  * -47.70700000  *
    72       H         67.02000000  *  157.83300000  * -47.88900000  *
    73       H         68.43500000  *  156.96300000  * -47.28800000  *
    74       C         67.10700000  *  155.55200000  * -42.37700000  *
    75       O         66.04900000  *  155.09700000  * -41.94000000  *
    76       N         68.30500000  *  155.12300000  * -41.98000000  *
    77       H         69.13800000  *  155.53400000  * -42.38900000  *
    78       C         68.47600000  *  154.16200000  * -40.90800000  *
    79       H         68.42900000  *  154.68400000  * -39.95200000  *
    80       H         67.66600000  *  153.43200000  * -40.94000000  *
    81       C         69.80000000  *  153.42300000  * -40.97600000  *
    82       O         70.82800000  *  153.93800000  * -41.42000000  *
    83       N         69.75500000  *  152.20800000  * -40.45600000  *
    84       H         68.84800000  *  151.84700000  * -40.19400000  *
    85       C         70.90800000  *  151.51800000  * -39.90200000  *
    86       H         71.80200000  *  152.13300000  * -40.01400000  *
    87       C         70.65300000  *  151.31500000  * -38.39900000  *
    88       H         69.82100000  *  150.62500000  * -38.25500000  *
    89       H         71.55400000  *  150.88600000  * -37.98400000  *
    90       C         70.35600000  *  152.62800000  * -37.64600000  *
    91       H         71.16900000  *  153.33300000  * -37.83000000  *
    92       H         69.44000000  *  153.07800000  * -38.03500000  *
    93       C         70.17600000  *  152.41300000  * -36.13500000  *
    94       O         69.23100000  *  151.70000000  * -35.72500000  *
    95       O         70.93200000  *  153.02200000  * -35.34400000  *
    96       C         71.12200000  *  150.21100000  * -40.67400000  *
    97       O         70.41300000  *  149.22200000  * -40.46900000  *
    98       N         72.02400000  *  150.24900000  * -41.65700000  *
    99       H         72.64200000  *  151.05000000  * -41.72900000  *
   100       C         72.14900000  *  149.21200000  * -42.68200000  *
   101       H         71.15400000  *  148.86600000  * -42.96600000  *
   102       H         72.61000000  *  149.65700000  * -43.56300000  *
   103       C         72.98000000  *  147.99500000  * -42.27000000  *
   104       O         73.50500000  *  147.89700000  * -41.16300000  *
   105       N         73.16200000  *  147.08200000  * -43.22300000  *
   106       H         72.68300000  *  147.21100000  * -44.10500000  *
   107       C         74.01900000  *  145.88100000  * -43.13400000  *
   108       H         73.76300000  *  145.32300000  * -42.23300000  *
   109       C         73.76600000  *  144.97900000  * -44.35300000  *
   110       H         74.55200000  *  144.22700000  * -44.43800000  *
   111       C         72.42200000  *  144.26900000  * -44.25300000  *
   112       H         71.60700000  *  144.99300000  * -44.23900000  *
   113       H         72.30800000  *  143.60800000  * -45.11200000  *
   114       H         72.40400000  *  143.66300000  * -43.34700000  *
   115       O         73.74900000  *  145.78100000  * -45.50900000  *
   116       H         73.26000000  *  145.31000000  * -46.22100000  *
   117       C         75.52200000  *  146.17700000  * -43.07300000  *
   118       O         76.26300000  *  145.34800000  * -42.55100000  *
   119       N         75.96100000  *  147.34400000  * -43.56900000  *
   120       H         75.27100000  *  147.91500000  * -44.02800000  *
   121       C         77.37800000  *  147.72400000  * -43.72600000  *
   122       H         78.00000000  *  147.07200000  * -43.11000000  *
   123       C         77.79400000  *  147.52900000  * -45.19600000  *
   124       H         77.18700000  *  148.18100000  * -45.82500000  *
   125       H         78.83500000  *  147.83100000  * -45.31600000  *
   126       C         77.69300000  *  146.11100000  * -45.70000000  *
   127       C         78.62100000  *  145.15800000  * -45.24700000  *
   128       H         79.41300000  *  145.44900000  * -44.56700000  *
   129       C         78.50400000  *  143.82200000  * -45.65600000  *
   130       H         79.21200000  *  143.09600000  * -45.28900000  *
   131       C         77.45500000  *  143.43800000  * -46.51900000  *
   132       O         77.29900000  *  142.13700000  * -46.85800000  *
   133       H         77.78200000  *  141.57400000  * -46.22400000  *
   134       C         76.54500000  *  144.40100000  * -46.99900000  *
   135       H         75.73400000  *  144.10500000  * -47.64600000  *
   136       C         76.67300000  *  145.74000000  * -46.59500000  *
   137       H         75.96000000  *  146.47400000  * -46.94400000  *
   138       C         77.71900000  *  149.16700000  * -43.31200000  *
   139       O         78.85800000  *  149.58700000  * -43.49700000  *
   140       N         76.77200000  *  149.95000000  * -42.78500000  *
   141       H         75.86500000  *  149.56400000  * -42.57000000  *
   142       C         76.98800000  *  151.36800000  * -42.47200000  *
   143       H         77.53900000  *  151.45500000  * -41.53800000  *
   144       H         77.59600000  *  151.81300000  * -43.25100000  *
   145       C         75.68700000  *  152.16100000  * -42.34100000  *
   146       O         74.62200000  *  151.56800000  * -42.14500000  *
   147       N         75.75500000  *  153.49500000  * -42.44900000  *
   148       H         76.58800000  *  153.89400000  * -42.85900000  *
   149       C         74.59200000  *  154.32600000  * -42.21200000  *
   150       H         73.82600000  *  153.78000000  * -41.65800000  *
   151       C         74.95900000  *  155.54800000  * -41.37000000  *
   152       H         75.70700000  *  156.13900000  * -41.89300000  *
   153       C         73.73100000  *  156.40900000  * -41.13300000  *
   154       H         72.94300000  *  155.80300000  * -40.68200000  *
   155       H         73.98600000  *  157.21200000  * -40.45000000  *
   156       H         73.36800000  *  156.84900000  * -42.06500000  *
   157       C         75.54500000  *  155.09600000  * -40.05300000  *
   158       H         76.46000000  *  154.52800000  * -40.19800000  *
   159       H         75.77700000  *  155.95300000  * -39.42300000  *
   160       H         74.80500000  *  154.48400000  * -39.53200000  *
   161       C         74.01900000  *  154.79200000  * -43.53700000  *
   162       O         74.76100000  *  155.18400000  * -44.43700000  *
   163       N         72.69900000  *  154.65800000  * -43.66800000  *
   164       H         72.17100000  *  154.34200000  * -42.85900000  *
   165       C         71.91900000  *  155.10100000  * -44.82700000  *
   166       H         72.57800000  *  155.15800000  * -45.69000000  *
   167       C         70.77400000  *  154.11800000  * -45.16000000  *
   168       H         69.93500000  *  154.30200000  * -44.48900000  *
   169       C         70.30700000  *  154.34600000  * -46.60300000  *
   170       H         71.11500000  *  154.12300000  * -47.30000000  *
   171       H         69.45900000  *  153.69600000  * -46.82300000  *
   172       H         70.00000000  *  155.38000000  * -46.74300000  *
   173       C         71.16000000  *  152.64300000  * -44.99800000  *
   174       H         72.06000000  *  152.42600000  * -45.56700000  *
   175       H         71.32900000  *  152.41300000  * -43.94500000  *
   176       H         70.34400000  *  152.00900000  * -45.35100000  *
   177       C         71.35500000  *  156.48900000  * -44.53400000  *
   178       O         70.63300000  *  156.64500000  * -43.54500000  *
   179       N         71.62500000  *  157.49000000  * -45.37400000  *
   180       H         72.23900000  *  157.32200000  * -46.16900000  *
   181       C         71.01800000  *  158.79600000  * -45.21900000  *
   182       H         70.37900000  *  158.84300000  * -44.33800000  *
   183       C         72.10000000  *  159.86100000  * -45.06900000  *
   184       H         72.79900000  *  159.78100000  * -45.90500000  *
   185       H         71.63400000  *  160.84400000  * -45.14300000  *
   186       C         72.87100000  *  159.84300000  * -43.76800000  *
   187       C         72.34700000  *  160.43100000  * -42.61900000  *
   188       H         71.37700000  *  160.90600000  * -42.66800000  *
   189       C         73.06400000  *  160.45200000  * -41.42500000  *
   190       H         72.63300000  *  160.94600000  * -40.56800000  *
   191       C         74.33000000  *  159.87400000  * -41.37100000  *
   192       O         75.04700000  *  159.90100000  * -40.18700000  *
   193       H         74.69700000  *  160.54100000  * -39.56800000  *
   194       C         74.87500000  *  159.27800000  * -42.50300000  *
   195       H         75.78500000  *  158.71900000  * -42.41900000  *
   196       C         74.14000000  *  159.26700000  * -43.69600000  *
   197       H         74.51800000  *  158.73300000  * -44.56500000  *
   198       C         70.16700000  *  159.17400000  * -46.42900000  *
   199       O         70.41800000  *  158.72400000  * -47.55600000  *
   200       N         69.02600000  *  159.82700000  * -46.21300000  *
   201       H         68.83500000  *  160.13300000  * -45.26500000  *
   202       C         68.29400000  *  160.50300000  * -47.28400000  *
   203       H         68.28900000  *  159.90000000  * -48.19400000  *
   204       C         66.84700000  *  160.81700000  * -46.85400000  *
   205       H         66.33600000  *  159.89200000  * -46.60000000  *
   206       H         66.85900000  *  161.45300000  * -45.96700000  *
   207       C         66.03400000  *  161.50300000  * -47.96400000  *
   208       H         66.50900000  *  162.44400000  * -48.24400000  *
   209       H         66.00000000  *  160.85100000  * -48.83800000  *
   210       C         64.60300000  *  161.78800000  * -47.48100000  *
   211       H         64.13800000  *  160.85300000  * -47.15900000  *
   212       H         64.64500000  *  162.46800000  * -46.62900000  *
   213       C         63.76400000  *  162.41300000  * -48.60300000  *
   214       H         64.29400000  *  163.29000000  * -48.99000000  *
   215       H         63.67800000  *  161.68400000  * -49.41600000  *
   216       N         62.41300000  *  162.81200000  * -48.12700000  *
   217       H         62.47000000  *  163.50700000  * -47.39600000  *
   218       H         61.86400000  *  163.21300000  * -48.87500000  *
   219       H         61.90000000  *  162.02300000  * -47.75800000  *
   220       C         69.09700000  *  161.76300000  * -47.51100000  *
   221       O         69.32300000  *  162.49700000  * -46.55200000  *
   222       N         69.55500000  *  162.00600000  * -48.72500000  *
   223       H         69.34400000  *  161.34200000  * -49.46700000  *
   224       C         70.34900000  *  163.18200000  * -49.01700000  *
   225       H         70.22500000  *  163.93500000  * -48.24000000  *
   226       C         71.81400000  *  162.79200000  * -49.07000000  *
   227       H         71.97800000  *  162.06700000  * -49.86400000  *
   228       H         72.42900000  *  163.67700000  * -49.23900000  *
   229       H         72.10500000  *  162.33200000  * -48.12600000  *
   230       C         69.94400000  *  163.83800000  * -50.32200000  *
   231       O         69.22100000  *  163.25100000  * -51.12800000  *
   232       N         70.40700000  *  165.06400000  * -50.52400000  *
   233       H         70.93200000  *  165.53000000  * -49.79600000  *
   234       C         70.10800000  *  165.77900000  * -51.74600000  *
   235       H         69.54100000  *  165.15900000  * -52.44400000  *
   236       H         69.52200000  *  166.69100000  * -51.53000000  *
   237       H         71.05900000  *  166.04700000  * -52.23900000  *
   238       H         68.08600000  *  164.80700000  * -56.55000000  *
   239       C         68.21200000  *  164.39600000  * -55.53600000  *
   240       O         69.28600000  *  164.50800000  * -54.94200000  *
   241       N         67.13500000  *  163.82300000  * -55.01100000  *
   242       H         66.34000000  *  163.66800000  * -55.61500000  *
   243       C         67.13600000  *  163.21200000  * -53.68800000  *
   244       H         67.86300000  *  163.70700000  * -53.05000000  *
   245       C         65.75500000  *  163.32300000  * -53.02900000  *
   246       H         64.97700000  *  163.06900000  * -53.75000000  *
   247       C         65.64800000  *  162.36600000  * -51.85200000  *
   248       H         66.47200000  *  162.51800000  * -51.15200000  *
   249       H         64.69700000  *  162.53800000  * -51.34700000  *
   250       H         65.65200000  *  161.33900000  * -52.20000000  *
   251       C         65.54000000  *  164.75000000  * -52.56600000  *
   252       H         65.62600000  *  165.42400000  * -53.41600000  *
   253       H         64.53500000  *  164.85100000  * -52.15900000  *
   254       H         66.28400000  *  165.00300000  * -51.81000000  *
   255       C         67.52600000  *  161.76000000  * -53.84700000  *
   256       O         66.97900000  *  161.02800000  * -54.68200000  *
   257       N         68.49600000  *  161.34900000  * -53.04800000  *
   258       H         68.91100000  *  161.99700000  * -52.39100000  *
   259       C         69.01100000  *  159.99200000  * -53.10200000  *
   260       H         68.34600000  *  159.34100000  * -53.67900000  *
   261       C         70.37400000  *  159.97400000  * -53.81600000  *
   262       H         70.77500000  *  158.96500000  * -53.87500000  *
   263       C         70.21400000  *  160.50700000  * -55.21300000  *
   264       H         69.95700000  *  161.56600000  * -55.19000000  *
   265       H         71.15100000  *  160.39100000  * -55.75600000  *
   266       H         69.44200000  *  159.95000000  * -55.73600000  *
   267       C         71.37900000  *  160.85000000  * -53.05700000  *
   268       H         71.56500000  *  160.44500000  * -52.06400000  *
   269       H         72.31500000  *  160.84900000  * -53.61300000  *
   270       H         71.03600000  *  161.88400000  * -52.98400000  *
   271       C         69.19200000  *  159.37200000  * -51.72900000  *
   272       O         69.02000000  *  160.03600000  * -50.68600000  *
   273       N         69.38000000  *  158.05800000  * -51.70200000  *
   274       H         69.45900000  *  157.56600000  * -52.58700000  *
   275       C         69.75700000  *  157.32100000  * -50.51100000  *
   276       H         69.47600000  *  157.88300000  * -49.62200000  *
   277       C         69.00200000  *  155.99800000  * -50.47500000  *
   278       H         69.23200000  *  155.42400000  * -51.36900000  *
   279       H         69.29400000  *  155.42800000  * -49.59200000  *
   280       H         67.93200000  *  156.19600000  * -50.43300000  *
   281       C         71.27500000  *  157.14300000  * -50.53800000  *
   282       O         71.80900000  *  156.46500000  * -51.42300000  *
   283       N         71.97000000  *  157.79100000  * -49.60300000  *
   284       H         71.44500000  *  158.28300000  * -48.88900000  *
   285       C         73.41300000  *  157.73400000  * -49.53500000  *
   286       H         73.80300000  *  157.43200000  * -50.50200000  *
   287       C         73.96100000  *  159.11400000  * -49.18200000  *
   288       H         73.49200000  *  159.84000000  * -49.85100000  *
   289       H         73.62800000  *  159.35800000  * -48.16900000  *
   290       C         75.47300000  *  159.31600000  * -49.26600000  *
   291       H         75.96900000  *  158.63700000  * -48.57100000  *
   292       C         75.94900000  *  159.02000000  * -50.68400000  *
   293       H         75.44100000  *  159.71800000  * -51.34800000  *
   294       H         77.02400000  *  159.18800000  * -50.76300000  *
   295       H         75.74700000  *  157.98700000  * -50.96800000  *
   296       C         75.80400000  *  160.74000000  * -48.87900000  *
   297       H         75.43700000  *  160.94600000  * -47.87600000  *
   298       H         76.88200000  *  160.87900000  * -48.92200000  *
   299       H         75.32000000  *  161.42900000  * -49.57600000  *
   300       C         73.82100000  *  156.71600000  * -48.48500000  *
   301       O         73.39600000  *  156.78100000  * -47.33400000  *
   302       N         74.65100000  *  155.75500000  * -48.88300000  *
   303       H         74.89400000  *  155.73300000  * -49.87100000  *
   304       C         75.12800000  *  154.63900000  * -48.05500000  *
   305       H         74.60900000  *  154.63200000  * -47.09500000  *
   306       C         74.82200000  *  153.33200000  * -48.82300000  *
   307       H         74.26900000  *  153.57200000  * -49.73400000  *
   308       H         75.74900000  *  152.85500000  * -49.13900000  *
   309       C         73.97800000  *  152.30000000  * -48.07200000  *
   310       H         73.16300000  *  152.79900000  * -47.55000000  *
   311       H         73.54200000  *  151.65200000  * -48.83100000  *
   312       C         74.80700000  *  151.45100000  * -47.09200000  *
   313       H         75.75400000  *  151.17700000  * -47.55900000  *
   314       H         75.03300000  *  152.05300000  * -46.20800000  *
   315       C         74.08800000  *  150.15900000  * -46.65800000  *
   316       H         74.72400000  *  149.65000000  * -45.92800000  *
   317       H         73.15200000  *  150.43000000  * -46.15500000  *
   318       N         73.80600000  *  149.25100000  * -47.81000000  *
   319       H         74.63100000  *  149.05100000  * -48.36300000  *
   320       H         73.41000000  *  148.34500000  * -47.52800000  *
   321       H         73.08700000  *  149.64400000  * -48.40800000  *
   322       C         76.62200000  *  154.83300000  * -47.79300000  *
   323       O         77.41500000  *  154.64700000  * -48.70800000  *
   324       N         77.01700000  *  155.22600000  * -46.58100000  *
   325       H         76.29800000  *  155.26800000  * -45.86500000  *
   326       C         78.42200000  *  155.28900000  * -46.15900000  *
   327       H         79.06600000  *  155.59300000  * -46.98900000  *
   328       C         78.56700000  *  156.26000000  * -44.97900000  *
   329       H         78.02700000  *  155.87500000  * -44.10900000  *
   330       H         79.62500000  *  156.33900000  * -44.73000000  *
   331       C         78.01500000  *  157.64300000  * -45.34000000  *
   332       H         78.45100000  *  157.95800000  * -46.27300000  *
   333       H         76.93600000  *  157.57500000  * -45.50000000  *
   334       C         78.25100000  *  158.72500000  * -44.27900000  *
   335       H         77.97800000  *  159.68000000  * -44.73200000  *
   336       H         77.56000000  *  158.53300000  * -43.46900000  *
   337       C         79.67700000  *  158.85000000  * -43.70900000  *
   338       H         80.38400000  *  158.36300000  * -44.39700000  *
   339       H         79.95000000  *  159.91100000  * -43.68600000  *
   340       N         79.78800000  *  158.26900000  * -42.33500000  *
   341       H         79.63700000  *  157.26100000  * -42.37000000  *
   342       H         80.69600000  *  158.42600000  * -41.93200000  *
   343       H         79.10400000  *  158.64600000  * -41.70100000  *
   344       C         78.82300000  *  153.89100000  * -45.72900000  *
   345       O         78.09100000  *  153.31500000  * -44.93700000  *
   346       N         79.90700000  *  153.32000000  * -46.24700000  *
   347       H         80.40500000  *  153.76400000  * -47.01000000  *
   348       C         80.34300000  *  152.02200000  * -45.76800000  *
   349       H         79.49500000  *  151.49800000  * -45.35900000  *
   350       C         80.94400000  *  151.18600000  * -46.89500000  *
   351       H         81.78600000  *  151.78200000  * -47.16900000  *
   352       C         81.42400000  *  149.85200000  * -46.34500000  *
   353       H         80.65600000  *  149.35200000  * -45.75200000  *
   354       H         81.67900000  *  149.19900000  * -47.17900000  *
   355       H         82.34500000  *  149.95700000  * -45.76100000  *
   356       C         79.89700000  *  150.97600000  * -47.99700000  *
   357       H         79.60200000  *  151.87000000  * -48.50000000  *
   358       H         80.28300000  *  150.30500000  * -48.75000000  *
   359       C         78.59100000  *  150.36100000  * -47.52600000  *
   360       H         78.17700000  *  150.90100000  * -46.69000000  *
   361       H         77.89400000  *  150.33700000  * -48.36300000  *
   362       H         78.77100000  *  149.33300000  * -47.20900000  *
   363       C         81.33300000  *  152.07100000  * -44.61400000  *
   364       O         82.16700000  *  152.98000000  * -44.51900000  *
   365       N         81.21100000  *  151.07100000  * -43.74300000  *
   366       H         80.50300000  *  150.36100000  * -43.92800000  *
   367       C         82.04400000  *  150.90200000  * -42.55200000  *
   368       H         81.47500000  *  151.18100000  * -41.66300000  *
   369       H         82.35800000  *  149.86100000  * -42.45900000  *
   370       H         82.94700000  *  151.51400000  * -42.62000000  *
   371       H         81.25700000  *  144.04600000  * -57.89900000  *
   372       C         80.50000000  *  144.84100000  * -57.88800000  *
   373       O         79.71500000  *  144.99000000  * -58.82400000  *
   374       N         80.49900000  *  145.60300000  * -56.79700000  *
   375       H         81.28000000  *  145.52500000  * -56.16600000  *
   376       C         79.57000000  *  146.70600000  * -56.61200000  *
   377       H         78.57500000  *  146.34400000  * -56.42300000  *
   378       C         80.00500000  *  147.61000000  * -55.44200000  *
   379       H         80.89800000  *  148.18000000  * -55.68500000  *
   380       C         78.90600000  *  148.60800000  * -55.12500000  *
   381       H         77.92000000  *  148.14100000  * -55.17600000  *
   382       H         79.04500000  *  148.98700000  * -54.11600000  *
   383       H         78.93800000  *  149.43600000  * -55.83300000  *
   384       C         80.32100000  *  146.76200000  * -54.20900000  *
   385       H         81.19200000  *  146.13400000  * -54.40600000  *
   386       H         80.59400000  *  147.42200000  * -53.38900000  *
   387       C         79.18400000  *  145.87900000  * -53.76500000  *
   388       H         78.77800000  *  145.31100000  * -54.59400000  *
   389       H         79.50900000  *  145.12200000  * -53.06500000  *
   390       H         78.38800000  *  146.48300000  * -53.33500000  *
   391       C         79.54300000  *  147.54500000  * -57.87900000  *
   392       O         78.48200000  *  147.77900000  * -58.45100000  *
   393       N         80.72300000  *  147.98900000  * -58.30900000  *
   394       H         81.55800000  *  147.70100000  * -57.81200000  *
   395       C         80.85900000  *  148.80400000  * -59.51100000  *
   396       H         80.33900000  *  149.74600000  * -59.38600000  *
   397       H         81.92800000  *  148.98500000  * -59.72900000  *
   398       H         80.37800000  *  148.32200000  * -60.38100000  *
   399       H         78.96400000  *  146.08700000  * -61.65600000  *
   400       C         77.87300000  *  146.08700000  * -61.51600000  *
   401       O         77.11500000  *  145.89500000  * -62.46400000  *
   402       N         77.44600000  *  146.31800000  * -60.28000000  *
   403       H         78.13400000  *  146.42500000  * -59.54900000  *
   404       C         76.02800000  *  146.35200000  * -59.94500000  *
   405       H         75.53300000  *  145.47600000  * -60.35900000  *
   406       C         75.84100000  *  146.37400000  * -58.43100000  *
   407       H         76.20500000  *  147.30400000  * -58.01800000  *
   408       H         74.76300000  *  146.35700000  * -58.24200000  *
   409       C         76.47200000  *  145.22200000  * -57.65900000  *
   410       H         77.55000000  *  145.23900000  * -57.74900000  *
   411       C         76.08000000  *  145.34100000  * -56.19200000  *
   412       H         74.99900000  *  145.23000000  * -56.07700000  *
   413       H         76.57300000  *  144.55300000  * -55.62900000  *
   414       H         76.38500000  *  146.30900000  * -55.80100000  *
   415       C         75.99600000  *  143.89000000  * -58.23600000  *
   416       H         76.41500000  *  143.73000000  * -59.22900000  *
   417       H         76.32800000  *  143.07800000  * -57.59100000  *
   418       H         74.90500000  *  143.87400000  * -58.30500000  *
   419       C         75.32200000  *  147.55900000  * -60.54800000  *
   420       O         74.09500000  *  147.56800000  * -60.66200000  *
   421       N         76.08400000  *  148.63100000  * -60.82900000  *
   422       H         77.08200000  *  148.53500000  * -60.67700000  *
   423       C         75.60100000  *  149.83300000  * -61.53400000  *
   424       H         74.83700000  *  150.33500000  * -60.94100000  *
   425       H         76.43800000  *  150.53300000  * -61.75900000  *
   426       H         75.13800000  *  149.54900000  * -62.49200000  *
   427       H         62.79000000  *  145.77200000  * -59.27600000  *
   428       C         63.71000000  *  145.72000000  * -58.67500000  *
   429       O         63.77900000  *  145.02200000  * -57.66400000  *
   430       N         64.72400000  *  146.45200000  * -59.11400000  *
   431       H         64.63800000  *  147.05100000  * -59.92700000  *
   432       C         65.97100000  *  146.53500000  * -58.38100000  *
   433       H         65.88400000  *  146.09200000  * -57.38600000  *
   434       C         67.11600000  *  145.87700000  * -59.11400000  *
   435       H         67.33600000  *  146.42600000  * -60.03000000  *
   436       C         68.35100000  *  145.87800000  * -58.21400000  *
   437       H         68.14700000  *  145.31400000  * -57.31800000  *
   438       H         69.21000000  *  145.44500000  * -58.72400000  *
   439       H         68.64100000  *  146.89000000  * -57.94500000  *
   440       C         66.72800000  *  144.44400000  * -59.47800000  *
   441       H         66.54900000  *  143.87300000  * -58.56400000  *
   442       H         65.81500000  *  144.42400000  * -60.06800000  *
   443       C         67.77400000  *  143.72700000  * -60.29600000  *
   444       H         68.68300000  *  143.57700000  * -59.72200000  *
   445       H         67.37700000  *  142.75300000  * -60.59800000  *
   446       H         68.02300000  *  144.31300000  * -61.18000000  *
   447       C         66.29500000  *  148.01000000  * -58.22000000  *
   448       O         66.21200000  *  148.78000000  * -59.18400000  *
   449       N         66.55100000  *  148.44100000  * -56.98200000  *
   450       H         66.62100000  *  147.76000000  * -56.23000000  *
   451       C         66.89000000  *  149.83800000  * -56.68700000  *
   452       H         66.07500000  *  150.48200000  * -57.01900000  *
   453       C         67.09500000  *  150.05500000  * -55.18200000  *
   454       H         67.89300000  *  149.40200000  * -54.82800000  *
   455       C         67.46200000  *  151.50400000  * -54.84700000  *
   456       H         66.64200000  *  152.17500000  * -55.10100000  *
   457       H         67.67300000  *  151.57800000  * -53.78200000  *
   458       H         68.35200000  *  151.81400000  * -55.39100000  *
   459       C         65.81400000  *  149.72900000  * -54.41300000  *
   460       H         65.54100000  *  148.68400000  * -54.53500000  *
   461       H         65.99700000  *  149.90600000  * -53.36100000  *
   462       H         64.99600000  *  150.35800000  * -54.75800000  *
   463       C         68.15100000  *  150.21400000  * -57.45600000  *
   464       O         69.17800000  *  149.54100000  * -57.33600000  *
   465       N         68.08000000  *  151.28300000  * -58.25100000  *
   466       H         67.22500000  *  151.80400000  * -58.24500000  *
   467       C         69.18900000  *  151.69800000  * -59.08000000  *
   468       H         69.52500000  *  150.81900000  * -59.63900000  *
   469       C         68.73700000  *  152.76800000  * -60.08300000  *
   470       H         67.83400000  *  152.41100000  * -60.57900000  *
   471       H         68.47700000  *  153.68100000  * -59.53700000  *
   472       C         69.79100000  *  153.06900000  * -61.13100000  *
   473       H         70.72100000  *  153.35000000  * -60.64200000  *
   474       H         69.97400000  *  152.16800000  * -61.71600000  *
   475       C         69.35100000  *  154.17900000  * -62.08100000  *
   476       H         68.50200000  *  153.81400000  * -62.66100000  *
   477       H         69.02300000  *  155.05600000  * -61.52200000  *
   478       C         70.49800000  *  154.55900000  * -63.02400000  *
   479       H         71.33900000  *  154.89000000  * -62.40800000  *
   480       H         70.81900000  *  153.66100000  * -63.56600000  *
   481       N         70.11800000  *  155.62600000  * -63.99700000  *
   482       H         69.74700000  *  156.41600000  * -63.48300000  *
   483       H         70.92600000  *  155.93300000  * -64.52500000  *
   484       H         69.41500000  *  155.27800000  * -64.63600000  *
   485       C         70.36000000  *  152.21400000  * -58.25300000  *
   486       O         70.19400000  *  153.07400000  * -57.38700000  *
   487       N         71.53700000  *  151.64500000  * -58.50700000  *
   488       H         71.59600000  *  150.90400000  * -59.18600000  *
   489       C         72.75000000  *  152.07400000  * -57.83600000  *
   490       H         72.53800000  *  152.52600000  * -56.87100000  *
   491       C         73.72700000  *  150.91100000  * -57.67000000  *
   492       H         73.31500000  *  150.22100000  * -56.93700000  *
   493       H         73.77900000  *  150.36900000  * -58.62000000  *
   494       C         75.16700000  *  151.27300000  * -57.28800000  *
   495       H         75.65500000  *  151.80300000  * -58.10000000  *
   496       C         75.18300000  *  152.16500000  * -56.05900000  *
   497       H         74.60800000  *  151.72100000  * -55.25200000  *
   498       H         76.21000000  *  152.29600000  * -55.73500000  *
   499       H         74.78900000  *  153.14000000  * -56.31200000  *
   500       C         75.93300000  *  149.99400000  * -57.01300000  *
   501       H         75.98300000  *  149.42100000  * -57.93300000  *
   502       H         76.94600000  *  150.24200000  * -56.71200000  *
   503       H         75.43500000  *  149.41000000  * -56.23200000  *
   504       C         73.31900000  *  153.11300000  * -58.79500000  *
   505       O         73.76900000  *  152.77900000  * -59.89700000  *
   506       N         73.26700000  *  154.36900000  * -58.37800000  *
   507       H         72.92600000  *  154.57000000  * -57.44900000  *
   508       C         73.73400000  *  155.46600000  * -59.19700000  *
   509       H         73.47500000  *  155.26500000  * -60.23600000  *
   510       C         73.02500000  *  156.74200000  * -58.76000000  *
   511       H         73.45000000  *  157.06300000  * -57.80900000  *
   512       H         73.23600000  *  157.53300000  * -59.48700000  *
   513       C         71.51300000  *  156.60300000  * -58.58700000  *
   514       H         71.27400000  *  155.80900000  * -57.88500000  *
   515       C         70.97400000  *  157.88000000  * -58.01900000  *
   516       H         71.37000000  *  158.74600000  * -58.56000000  *
   517       H         69.88800000  *  157.89100000  * -58.09300000  *
   518       H         71.22100000  *  157.96000000  * -56.96600000  *
   519       C         70.85100000  *  156.29000000  * -59.92300000  *
   520       H         71.28300000  *  155.39700000  * -60.34200000  *
   521       H         69.78900000  *  156.14400000  * -59.75100000  *
   522       H         71.00300000  *  157.12700000  * -60.60700000  *
   523       C         75.24500000  *  155.67800000  * -59.15800000  *
   524       O         75.83900000  *  156.04700000  * -60.17600000  *
   525       N         75.86200000  *  155.44600000  * -57.99600000  *
   526       H         75.29500000  *  155.17900000  * -57.20400000  *
   527       C         77.30800000  *  155.64700000  * -57.82900000  *
   528       H         77.80800000  *  155.40400000  * -58.76600000  *
   529       C         77.60000000  *  157.11700000  * -57.51900000  *
   530       H         76.91700000  *  157.54400000  * -56.80300000  *
   531       H         78.58200000  *  157.17000000  * -57.04800000  *
   532       C         77.65600000  *  157.97500000  * -58.75600000  *
   533       O         78.67800000  *  157.91700000  * -59.48300000  *
   534       O         76.67400000  *  158.70400000  * -59.00000000  *
   535       C         77.97900000  *  154.81700000  * -56.73400000  *
   536       O         77.37100000  *  154.52100000  * -55.70400000  *
   537       N         79.24700000  *  154.47700000  * -56.96600000  *
   538       H         79.69800000  *  154.82400000  * -57.79800000  *
   539       C         80.06100000  *  153.73800000  * -56.00300000  *
   540       H         79.55400000  *  153.69900000  * -55.05200000  *
   541       C         80.36600000  *  152.29800000  * -56.50400000  *
   542       H         79.42700000  *  151.75200000  * -56.56200000  *
   543       C         80.98100000  *  152.34300000  * -57.88400000  *
   544       H         82.06600000  *  152.43300000  * -57.82100000  *
   545       H         80.74600000  *  151.41400000  * -58.37900000  *
   546       H         80.59600000  *  153.14500000  * -58.51000000  *
   547       C         81.29900000  *  151.58800000  * -55.53900000  *
   548       H         80.81100000  *  151.54900000  * -54.57200000  *
   549       H         81.47300000  *  150.57200000  * -55.87800000  *
   550       H         82.25900000  *  152.09200000  * -55.44900000  *
   551       C         81.36500000  *  154.53600000  * -55.81000000  *
   552       O         82.27000000  *  154.48900000  * -56.64700000  *
   553       N         81.45200000  *  155.28200000  * -54.71000000  *
   554       H         80.67600000  *  155.30400000  * -54.06400000  *
   555       C         82.62100000  *  156.11100000  * -54.44300000  *
   556       H         83.20500000  *  156.21800000  * -55.35800000  *
   557       H         82.32200000  *  157.12800000  * -54.14500000  *
   558       H         83.29700000  *  155.73900000  * -53.65600000  *
   559       H         84.58000000  *  155.17100000  * -47.07300000  *
   560       C         84.22500000  *  154.98400000  * -48.09100000  *
   561       O         84.63900000  *  155.65900000  * -49.04200000  *
   562       N         83.35800000  *  153.99100000  * -48.22200000  *
   563       H         83.13600000  *  153.42800000  * -47.41700000  *
   564       C         82.77600000  *  153.65100000  * -49.50600000  *
   565       H         83.37000000  *  154.04700000  * -50.31700000  *
   566       C         82.71900000  *  152.14000000  * -49.66000000  *
   567       H         83.74000000  *  151.87500000  * -49.95700000  *
   568       H         82.64400000  *  151.54600000  * -48.78400000  *
   569       C         81.82600000  *  151.61900000  * -50.77900000  *
   570       H         80.79100000  *  151.88400000  * -50.58700000  *
   571       C         82.25800000  *  152.23100000  * -52.09200000  *
   572       H         83.31100000  *  152.49100000  * -52.08900000  *
   573       H         82.09300000  *  151.51300000  * -52.88400000  *
   574       H         81.65400000  *  153.10900000  * -52.31200000  *
   575       C         81.89900000  *  150.09400000  * -50.82200000  *
   576       H         81.91300000  *  149.66400000  * -49.82700000  *
   577       H         81.05200000  *  149.70600000  * -51.39100000  *
   578       H         82.82500000  *  149.80300000  * -51.32100000  *
   579       C         81.36700000  *  154.23200000  * -49.54800000  *
   580       O         80.51800000  *  153.85700000  * -48.74500000  *
   581       N         81.13100000  *  155.16100000  * -50.46700000  *
   582       H         81.84500000  *  155.34800000  * -51.16200000  *
   583       C         79.82200000  *  155.78100000  * -50.60800000  *
   584       H         79.27400000  *  155.67000000  * -49.68700000  *
   585       C         79.96700000  *  157.27800000  * -50.86800000  *
   586       H         80.42300000  *  157.50400000  * -51.79700000  *
   587       H         78.95400000  *  157.66400000  * -50.98900000  *
   588       C         80.57600000  *  158.04300000  * -49.72300000  *
   589       C         79.79300000  *  158.48000000  * -48.65600000  *
   590       H         78.73500000  *  158.25400000  * -48.66900000  *
   591       C         80.35600000  *  159.18600000  * -47.59400000  *
   592       H         79.75300000  *  159.56200000  * -46.79700000  *
   593       C         81.71600000  *  159.45200000  * -47.58700000  *
   594       O         82.27600000  *  160.12500000  * -46.52100000  *
   595       H         83.20600000  *  160.30800000  * -46.74500000  *
   596       C         82.51400000  *  159.02600000  * -48.63700000  *
   597       H         83.58200000  *  159.23300000  * -48.65000000  *
   598       C         81.94100000  *  158.32800000  * -49.69800000  *
   599       H         82.57400000  *  157.98100000  * -50.50200000  *
   600       C         79.04800000  *  155.15800000  * -51.76500000  *
   601       O         79.54400000  *  155.08000000  * -52.88800000  *
   602       N         77.86200000  *  154.62300000  * -51.49400000  *
   603       H         77.53800000  *  154.64100000  * -50.53300000  *
   604       C         76.98100000  *  154.05400000  * -52.51200000  *
   605       H         77.50600000  *  154.00000000  * -53.46000000  *
   606       C         76.54500000  *  152.62300000  * -52.15300000  *
   607       H         75.85300000  *  152.67000000  * -51.32100000  *
   608       H         76.00200000  *  152.21800000  * -53.00800000  *
   609       C         77.68000000  *  151.65300000  * -51.78600000  *
   610       H         78.19200000  *  152.00200000  * -50.89000000  *
   611       C         77.10800000  *  150.26400000  * -51.50400000  *
   612       H         76.61600000  *  149.87100000  * -52.39600000  *
   613       H         77.91200000  *  149.58600000  * -51.21300000  *
   614       H         76.38800000  *  150.32000000  * -50.69000000  *
   615       C         78.68900000  *  151.52500000  * -52.92100000  *
   616       H         79.20900000  *  152.47100000  * -53.05500000  *
   617       H         79.42400000  *  150.76400000  * -52.67100000  *
   618       H         78.17800000  *  151.25800000  * -53.84700000  *
   619       C         75.78500000  *  154.98400000  * -52.67200000  *
   620       O         75.10100000  *  155.25800000  * -51.68200000  *
   621       N         75.54700000  *  155.50800000  * -53.87800000  *
   622       H         76.14500000  *  155.25500000  * -54.66000000  *
   623       C         74.40900000  *  156.37500000  * -54.09400000  *
   624       H         73.97600000  *  156.70200000  * -53.15000000  *
   625       C         74.83400000  *  157.63700000  * -54.81800000  *
   626       H         75.25500000  *  157.34500000  * -55.76600000  *
   627       C         73.61400000  *  158.52200000  * -55.10900000  *
   628       H         73.11700000  *  158.76900000  * -54.17500000  *
   629       H         73.94100000  *  159.43100000  * -55.61500000  *
   630       H         72.91600000  *  158.00900000  * -55.76200000  *
   631       C         75.84000000  *  158.38200000  * -53.94900000  *
   632       H         75.28100000  *  158.78400000  * -53.13000000  *
   633       H         76.65600000  *  157.75800000  * -53.60500000  *
   634       H         76.26100000  *  159.20400000  * -54.52500000  *
   635       C         73.31400000  *  155.64400000  * -54.85300000  *
   636       O         73.49500000  *  155.22100000  * -55.99400000  *
   637       N         72.19900000  *  155.40200000  * -54.16800000  *
   638       H         72.13000000  *  155.75700000  * -53.21800000  *
   639       C         71.01500000  *  154.73800000  * -54.70800000  *
   640       H         71.26300000  *  154.27200000  * -55.65700000  *
   641       C         70.55000000  *  153.64700000  * -53.73800000  *
   642       H         70.39900000  *  154.09000000  * -52.75600000  *
   643       H         69.57900000  *  153.28400000  * -54.07100000  *
   644       C         71.48500000  *  152.45900000  * -53.60300000  *
   645       C         71.36600000  *  151.36400000  * -54.48000000  *
   646       H         70.63400000  *  151.38000000  * -55.27400000  *
   647       C         72.19000000  *  150.23600000  * -54.32200000  *
   648       H         72.08800000  *  149.39100000  * -54.99100000  *
   649       C         73.14300000  *  150.20200000  * -53.28900000  *
   650       H         73.77800000  *  149.33300000  * -53.16700000  *
   651       C         73.27000000  *  151.29700000  * -52.41600000  *
   652       H         73.99500000  *  151.26300000  * -51.61800000  *
   653       C         72.44700000  *  152.42700000  * -52.57500000  *
   654       H         72.54500000  *  153.26600000  * -51.89800000  *
   655       C         69.88900000  *  155.74900000  * -54.94600000  *
   656       O         69.74900000  *  156.71700000  * -54.19800000  *
   657       N         69.06500000  *  155.53700000  * -55.97400000  *
   658       H         69.21900000  *  154.71400000  * -56.54900000  *
   659       C         67.80300000  *  156.28200000  * -56.12500000  *
   660       H         68.04700000  *  157.33100000  * -56.29600000  *
   661       C         67.02100000  *  155.77500000  * -57.35000000  *
   662       H         66.16100000  *  156.43000000  * -57.49200000  *
   663       H         67.65900000  *  155.84700000  * -58.23200000  *
   664       C         66.52600000  *  154.32600000  * -57.20700000  *
   665       H         67.38800000  *  153.67300000  * -57.06500000  *
   666       H         65.89200000  *  154.24700000  * -56.32600000  *
   667       C         65.69700000  *  153.82300000  * -58.39100000  *
   668       O         65.20000000  *  154.63300000  * -59.20700000  *
   669       O         65.50000000  *  152.59000000  * -58.46900000  *
   670       C         66.95700000  *  156.19500000  * -54.83700000  *
   671       O         66.86900000  *  155.13100000  * -54.22600000  *
   672       N         66.34300000  *  157.29100000  * -54.38500000  *
   673       H         66.39000000  *  158.14900000  * -54.91600000  *
   674       C         65.49500000  *  157.25900000  * -53.18600000  *
   675       H         65.98000000  *  156.63100000  * -52.43700000  *
   676       C         65.38400000  *  158.66500000  * -52.58900000  *
   677       H         66.38400000  *  159.02000000  * -52.34300000  *
   678       H         64.96500000  *  159.33400000  * -53.34200000  *
   679       C         64.53900000  *  158.74000000  * -51.33100000  *
   680       C         63.26700000  *  159.34400000  * -51.36400000  *
   681       H         62.88800000  *  159.76400000  * -52.28500000  *
   682       C         62.48300000  *  159.40000000  * -50.19900000  *
   683       H         61.50600000  *  159.86300000  * -50.23000000  *
   684       C         62.96400000  *  158.85000000  * -48.99800000  *
   685       H         62.35900000  *  158.89100000  * -48.10200000  *
   686       C         64.23200000  *  158.24500000  * -48.96200000  *
   687       H         64.59900000  *  157.82100000  * -48.03900000  *
   688       C         65.01900000  *  158.19100000  * -50.12700000  *
   689       H         65.99200000  *  157.72200000  * -50.09600000  *
   690       C         64.10800000  *  156.65900000  * -53.47200000  *
   691       O         63.47000000  *  157.00300000  * -54.46900000  *
   692       N         63.62400000  *  155.80600000  * -52.56300000  *
   693       H         64.21800000  *  155.55900000  * -51.78100000  *
   694       C         62.23200000  *  155.34500000  * -52.50000000  *
   695       H         61.63300000  *  155.87400000  * -53.24400000  *
   696       C         62.13400000  *  153.83500000  * -52.77800000  *
   697       H         62.86100000  *  153.30700000  * -52.16200000  *
   698       H         61.14100000  *  153.51100000  * -52.46400000  *
   699       C         62.31900000  *  153.45800000  * -54.26200000  *
   700       H         61.98900000  *  154.28300000  * -54.89300000  *
   701       C         63.77500000  *  153.12400000  * -54.58500000  *
   702       H         64.12500000  *  152.32200000  * -53.93800000  *
   703       H         63.86700000  *  152.82600000  * -55.62900000  *
   704       H         64.39900000  *  154.00100000  * -54.42500000  *
   705       C         61.47400000  *  152.23200000  * -54.61600000  *
   706       H         60.42500000  *  152.42600000  * -54.38800000  *
   707       H         61.55700000  *  152.02300000  * -55.68200000  *
   708       H         61.80700000  *  151.36300000  * -54.05100000  *
   709       C         61.64700000  *  155.68100000  * -51.12300000  *
   710       O         62.33100000  *  155.58800000  * -50.10700000  *
   711       N         60.38900000  *  156.11300000  * -51.08500000  *
   712       H         59.88900000  *  156.20200000  * -51.96100000  *
   713       C         59.80400000  *  156.78400000  * -49.91900000  *
   714       H         60.51900000  *  157.52900000  * -49.57100000  *
   715       C         58.55000000  *  157.54500000  * -50.37000000  *
   716       H         57.77500000  *  156.82500000  * -50.63600000  *
   717       H         58.19200000  *  158.14300000  * -49.53300000  *
   718       C         58.76900000  *  158.46400000  * -51.55000000  *
   719       N         58.88100000  *  158.06100000  * -52.88600000  *
   720       C         59.09100000  *  159.18500000  * -53.59400000  *
   721       H         59.21900000  *  159.22900000  * -54.67000000  *
   722       N         59.11500000  *  160.25300000  * -52.77900000  *
   723       H         59.25300000  *  161.21400000  * -53.07900000  *
   724       C         58.91600000  *  159.81900000  * -51.48700000  *
   725       H         58.88000000  *  160.42700000  * -50.59100000  *
   726       C         59.51600000  *  155.88400000  * -48.70200000  *
   727       O         59.38200000  *  156.40700000  * -47.59500000  *
   728       N         59.42600000  *  154.55800000  * -48.87100000  *
   729       H         59.55600000  *  154.18200000  * -49.80100000  *
   730       C         59.06400000  *  153.61200000  * -47.80300000  *
   731       H         59.51200000  *  153.96000000  * -46.87100000  *
   732       C         57.52800000  *  153.63300000  * -47.63600000  *
   733       H         57.23000000  *  154.64900000  * -47.37100000  *
   734       H         57.05200000  *  153.38100000  * -48.58500000  *
   735       C         57.01100000  *  152.67500000  * -46.55200000  *
   736       H         56.85900000  *  151.68800000  * -46.98800000  *
   737       H         57.75500000  *  152.59300000  * -45.76100000  *
   738       C         55.71900000  *  153.15700000  * -45.90300000  *
   739       O         55.72600000  *  153.86300000  * -44.90800000  *
   740       N         54.56500000  *  152.79600000  * -46.42200000  *
   741       H         53.73500000  *  153.13500000  * -45.95800000  *
   742       H         54.52900000  *  152.24400000  * -47.26000000  *
   743       C         59.60100000  *  152.18700000  * -48.05900000  *
   744       O         59.68400000  *  151.74300000  * -49.20500000  *
   745       N         59.94800000  *  151.45900000  * -46.99000000  *
   746       H         59.86300000  *  151.87900000  * -46.07800000  *
   747       C         60.28300000  *  150.02700000  * -47.03800000  *
   748       H         60.59200000  *  149.79000000  * -48.05100000  *
   749       C         61.49100000  *  149.72700000  * -46.13200000  *
   750       H         61.82100000  *  148.70600000  * -46.33400000  *
   751       H         62.30800000  *  150.39500000  * -46.40800000  *
   752       C         61.21000000  *  149.86000000  * -44.63200000  *
   753       O         60.30800000  *  149.15900000  * -44.12900000  *
   754       O         61.91500000  *  150.64700000  * -43.96200000  *
   755       C         59.07800000  *  149.11300000  * -46.72000000  *
   756       O         58.05400000  *  149.55600000  * -46.18300000  *
   757       N         59.19100000  *  147.81900000  * -47.04800000  *
   758       H         60.03800000  *  147.50900000  * -47.52500000  *
   759       C         58.10100000  *  146.88000000  * -46.84100000  *
   760       H         57.21800000  *  147.32500000  * -47.29300000  *
   761       C         58.41200000  *  145.57700000  * -47.59200000  *
   762       H         58.61300000  *  145.80400000  * -48.64400000  *
   763       H         59.28800000  *  145.12100000  * -47.15800000  *
   764       C         57.28700000  *  144.52700000  * -47.51900000  *
   765       H         57.05600000  *  144.28000000  * -46.48700000  *
   766       C         56.00700000  *  145.04400000  * -48.19600000  *
   767       H         56.23500000  *  145.37800000  * -49.20200000  *
   768       H         55.26800000  *  144.24500000  * -48.23100000  *
   769       H         55.59500000  *  145.87000000  * -47.62900000  *
   770       C         57.76800000  *  143.24900000  * -48.17500000  *
   771       H         58.61500000  *  142.85400000  * -47.62000000  *
   772       H         56.97300000  *  142.50400000  * -48.17100000  *
   773       H         58.06400000  *  143.44500000  * -49.20700000  *
   774       C         57.76400000  *  146.61300000  * -45.36900000  *
   775       O         56.60900000  *  146.37600000  * -45.03000000  *
   776       N         58.75700000  *  146.67700000  * -44.48800000  *
   777       H         59.64000000  *  147.08600000  * -44.79000000  *
   778       C         58.49100000  *  146.46700000  * -43.07300000  *
   779       H         57.97900000  *  145.55100000  * -42.87200000  *
   780       C         59.78200000  *  146.47800000  * -42.25400000  *
   781       H         60.44800000  *  145.70000000  * -42.62000000  *
   782       H         60.28600000  *  147.44000000  * -42.35600000  *
   783       C         59.49200000  *  146.22900000  * -40.76500000  *
   784       H         58.94200000  *  147.08300000  * -40.37400000  *
   785       H         58.87100000  *  145.33200000  * -40.67600000  *
   786       C         60.74500000  *  146.03800000  * -39.93500000  *
   787       H         61.36100000  *  145.25900000  * -40.37900000  *
   788       H         61.30800000  *  146.97100000  * -39.90700000  *
   789       C         60.37600000  *  145.60700000  * -38.51700000  *
   790       H         59.98500000  *  144.58900000  * -38.53700000  *
   791       H         61.27900000  *  145.61300000  * -37.90300000  *
   792       N         59.34600000  *  146.53100000  * -37.94700000  *
   793       H         58.44600000  *  146.48100000  * -38.44300000  *
   794       H         59.09000000  *  146.27800000  * -37.00400000  *
   795       H         59.61300000  *  147.50600000  * -37.97800000  *
   796       C         57.55800000  *  147.53800000  * -42.51200000  *
   797       O         56.61300000  *  147.23400000  * -41.78300000  *
   798       N         57.84000000  *  148.81100000  * -42.80600000  *
   799       H         58.67400000  *  148.99400000  * -43.36800000  *
   800       C         57.01900000  *  149.93600000  * -42.34300000  *
   801       H         56.91500000  *  149.86700000  * -41.25800000  *
   802       C         57.72200000  *  151.26200000  * -42.67300000  *
   803       H         58.73600000  *  151.23000000  * -42.26900000  *
   804       H         57.78500000  *  151.38200000  * -43.75500000  *
   805       C         56.98500000  *  152.46200000  * -42.05800000  *
   806       H         56.00100000  *  152.55500000  * -42.52000000  *
   807       H         56.85000000  *  152.28900000  * -40.98900000  *
   808       C         57.76300000  *  153.77000000  * -42.25400000  *
   809       H         58.71100000  *  153.70600000  * -41.71600000  *
   810       H         57.96400000  *  153.92200000  * -43.31600000  *
   811       C         56.93700000  *  154.94400000  * -41.71100000  *
   812       H         55.99500000  *  154.99300000  * -42.26600000  *
   813       H         56.69600000  *  154.74500000  * -40.66300000  *
   814       N         57.66100000  *  156.23500000  * -41.82500000  *
   815       H         57.87500000  *  156.45400000  * -42.78700000  *
   816       H         57.10500000  *  156.99400000  * -41.45700000  *
   817       H         58.52700000  *  156.21700000  * -41.30500000  *
   818       C         55.61000000  *  149.84000000  * -42.92600000  *
   819       O         54.63400000  *  150.08400000  * -42.22200000  *
   820       N         55.49500000  *  149.42600000  * -44.18900000  *
   821       H         56.35000000  *  149.26300000  * -44.71300000  *
   822       C         54.20500000  *  149.26000000  * -44.85200000  *
   823       H         53.62600000  *  150.17500000  * -44.72500000  *
   824       C         54.41000000  *  148.98800000  * -46.34000000  *
   825       H         54.98900000  *  149.80200000  * -46.77700000  *
   826       H         55.00200000  *  148.07700000  * -46.45200000  *
   827       C         53.12600000  *  148.85300000  * -47.10800000  *
   828       C         52.23100000  *  149.92200000  * -47.18600000  *
   829       H         52.46300000  *  150.85600000  * -46.69900000  *
   830       C         51.01500000  *  149.79500000  * -47.88400000  *
   831       H         50.32500000  *  150.62800000  * -47.91800000  *
   832       C         50.69700000  *  148.60300000  * -48.50200000  *
   833       H         49.75200000  *  148.50200000  * -49.02000000  *
   834       C         51.58700000  *  147.52100000  * -48.43200000  *
   835       H         51.33500000  *  146.58300000  * -48.91200000  *
   836       C         52.79500000  *  147.65400000  * -47.73300000  *
   837       H         53.46700000  *  146.81000000  * -47.67200000  *
   838       C         53.37400000  *  148.12200000  * -44.22700000  *
   839       O         52.16900000  *  148.28300000  * -44.00900000  *
   840       N         54.01600000  *  146.98100000  * -43.96600000  *
   841       H         55.00900000  *  146.90600000  * -44.17900000  *
   842       C         53.33800000  *  145.83600000  * -43.34100000  *
   843       H         52.47600000  *  145.52800000  * -43.93400000  *
   844       C         54.29200000  *  144.65000000  * -43.17000000  *
   845       H         55.15800000  *  145.02700000  * -42.63600000  *
   846       H         53.80700000  *  143.89200000  * -42.54700000  *
   847       C         54.73100000  *  144.00400000  * -44.46100000  *
   848       H         53.84700000  *  143.61400000  * -44.95900000  *
   849       H         55.19200000  *  144.69400000  * -45.15000000  *
   850       S         55.79700000  *  142.58100000  * -44.15400000  *
   851       C         57.05400000  *  143.29200000  * -43.18800000  *
   852       H         56.67800000  *  143.65800000  * -42.23500000  *
   853       H         57.80700000  *  142.53400000  * -42.98200000  *
   854       H         57.44300000  *  144.07900000  * -43.80900000  *
   855       C         52.84400000  *  146.26000000  * -41.95900000  *
   856       O         51.68200000  *  146.03200000  * -41.61400000  *
   857       N         53.72600000  *  146.88400000  * -41.17900000  *
   858       H         54.70100000  *  146.95700000  * -41.45300000  *
   859       C         53.34300000  *  147.35100000  * -39.84600000  *
   860       H         53.03400000  *  146.49700000  * -39.23800000  *
   861       C         54.50500000  *  148.07700000  * -39.15700000  *
   862       H         54.94100000  *  148.81500000  * -39.83000000  *
   863       H         54.12400000  *  148.60600000  * -38.28400000  *
   864       C         55.58400000  *  147.11500000  * -38.68500000  *
   865       O         55.26200000  *  145.90900000  * -38.57600000  *
   866       O         56.73300000  *  147.55200000  * -38.41700000  *
   867       C         52.15000000  *  148.27900000  * -39.96300000  *
   868       O         51.20300000  *  148.18000000  * -39.18700000  *
   869       N         52.18300000  *  149.16200000  * -40.95500000  *
   870       H         53.01600000  *  149.23700000  * -41.51800000  *
   871       C         51.08600000  *  150.10000000  * -41.17300000  *
   872       H         50.93100000  *  150.67400000  * -40.25800000  *
   873       C         51.42800000  *  151.06800000  * -42.31500000  *
   874       H         51.45500000  *  150.53900000  * -43.26600000  *
   875       H         50.66000000  *  151.83800000  * -42.36800000  *
   876       H         52.39300000  *  151.53600000  * -42.12800000  *
   877       C         49.78900000  *  149.37000000  * -41.49900000  *
   878       O         48.71100000  *  149.83600000  * -41.15600000  *
   879       N         49.90500000  *  148.22900000  * -42.16400000  *
   880       H         50.83800000  *  147.88500000  * -42.38200000  *
   881       C         48.74000000  *  147.45400000  * -42.57500000  *
   882       H         47.85700000  *  148.08600000  * -42.62800000  *
   883       H         48.90600000  *  147.02300000  * -43.58600000  *
   884       H         48.52600000  *  146.61900000  * -41.88800000  *
   885       H         72.54500000  *  137.05800000  * -55.15200000  *
   886       C         72.38600000  *  137.90500000  * -54.47400000  *
   887       O         73.28300000  *  138.71900000  * -54.28600000  *
   888       N         71.20100000  *  138.01500000  * -53.89800000  *
   889       H         70.47300000  *  137.31400000  * -54.05700000  *
   890       C         70.96800000  *  139.10000000  * -52.94900000  *
   891       H         71.50000000  *  140.00600000  * -53.22900000  *
   892       C         69.47700000  *  139.40500000  * -52.82500000  *
   893       H         69.09300000  *  139.71900000  * -53.79200000  *
   894       H         68.93000000  *  138.50600000  * -52.53300000  *
   895       C         69.17800000  *  140.45400000  * -51.81200000  *
   896       N         69.23000000  *  140.42300000  * -50.45900000  *
   897       C         68.94700000  *  141.69100000  * -50.01400000  *
   898       H         68.96900000  *  142.01200000  * -48.98400000  *
   899       N         68.72400000  *  142.47200000  * -51.05500000  *
   900       H         68.47200000  *  143.44500000  * -51.00700000  *
   901       C         68.85400000  *  141.75000000  * -52.15500000  *
   902       H         68.77100000  *  142.12600000  * -53.16500000  *
   903       C         71.52100000  *  138.65700000  * -51.58300000  *
   904       O         72.28000000  *  139.38000000  * -50.94700000  *
   905       N         71.11400000  *  137.47100000  * -51.14500000  *
   906       H         70.37100000  *  137.01600000  * -51.66500000  *
   907       C         71.55500000  *  136.88000000  * -49.87700000  *
   908       H         71.18200000  *  135.84900000  * -49.87900000  *
   909       C         73.07600000  *  136.85300000  * -49.83700000  *
   910       H         73.53100000  *  137.83300000  * -49.86900000  *
   911       H         73.36600000  *  136.47900000  * -48.85100000  *
   912       C         73.64700000  *  135.85900000  * -50.81700000  *
   913       H         73.29800000  *  134.87100000  * -50.67200000  *
   914       H         73.21600000  *  136.10500000  * -51.78700000  *
   915       C         75.11700000  *  136.08400000  * -50.99900000  *
   916       H         75.61200000  *  135.95400000  * -50.03300000  *
   917       H         75.49500000  *  135.33200000  * -51.69500000  *
   918       N         75.35800000  *  137.42700000  * -51.50600000  *
   919       H         74.62100000  *  138.12700000  * -51.38200000  *
   920       C         76.54800000  *  137.85900000  * -51.89000000  *
   921       N         77.59300000  *  137.04400000  * -51.81500000  *
   922       H         77.44700000  *  136.21200000  * -51.26800000  *
   923       H         78.49900000  *  137.44300000  * -51.92100000  *
   924       N         76.69000000  *  139.09300000  * -52.35600000  *
   925       H         75.86000000  *  139.69200000  * -52.33800000  *
   926       H         77.56200000  *  139.47800000  * -52.67100000  *
   927       C         71.03700000  *  137.42400000  * -48.54200000  *
   928       O         71.18700000  *  136.76800000  * -47.50900000  *
   929       N         70.43700000  *  138.60400000  * -48.51600000  *
   930       H         70.32800000  *  139.16900000  * -49.34700000  *
   931       C         69.93700000  *  139.07600000  * -47.23100000  *
   932       H         69.76500000  *  138.24900000  * -46.54100000  *
   933       C         70.93500000  *  140.04200000  * -46.56200000  *
   934       H         71.90900000  *  139.56600000  * -46.50900000  *
   935       H         71.04400000  *  140.94300000  * -47.17900000  *
   936       C         70.51300000  *  140.42800000  * -45.14700000  *
   937       O         70.17200000  *  139.51500000  * -44.35500000  *
   938       O         70.51000000  *  141.64400000  * -44.82500000  *
   939       C         68.58700000  *  139.73400000  * -47.37800000  *
   940       O         68.35000000  *  140.81000000  * -46.83500000  *
   941       N         67.68700000  *  139.08300000  * -48.11000000  *
   942       H         67.94300000  *  138.20800000  * -48.54500000  *
   943       C         66.35900000  *  139.64900000  * -48.29900000  *
   944       H         66.47700000  *  140.66700000  * -48.65900000  *
   945       C         65.54600000  *  138.81300000  * -49.28800000  *
   946       H         65.58300000  *  137.78400000  * -48.94500000  *
   947       H         64.50600000  *  139.14000000  * -49.25500000  *
   948       C         66.02700000  *  138.85500000  * -50.73600000  *
   949       H         67.06400000  *  138.52800000  * -50.78200000  *
   950       C         65.17300000  *  137.91700000  * -51.58300000  *
   951       H         64.15900000  *  138.30500000  * -51.68800000  *
   952       H         65.63400000  *  137.80700000  * -52.55000000  *
   953       H         65.13400000  *  136.93500000  * -51.11000000  *
   954       C         65.92100000  *  140.27700000  * -51.26400000  *
   955       H         66.42000000  *  140.99600000  * -50.63300000  *
   956       H         66.44200000  *  140.27500000  * -52.20900000  *
   957       H         64.88200000  *  140.56100000  * -51.39700000  *
   958       C         65.59400000  *  139.73400000  * -46.98200000  *
   959       O         65.58600000  *  138.79200000  * -46.16600000  *
   960       N         64.95700000  *  140.85600000  * -46.74400000  *
   961       H         64.96600000  *  141.58700000  * -47.44200000  *
   962       C         64.17500000  *  141.06900000  * -45.54100000  *
   963       H         63.56700000  *  140.17700000  * -45.39100000  *
   964       C         65.06100000  *  141.24600000  * -44.28800000  *
   965       H         64.43000000  *  141.32000000  * -43.40200000  *
   966       H         65.65800000  *  140.34200000  * -44.16400000  *
   967       C         66.00200000  *  142.45800000  * -44.31100000  *
   968       H         66.42400000  *  142.57700000  * -45.30600000  *
   969       H         65.44700000  *  143.35900000  * -44.04700000  *
   970       C         67.14800000  *  142.22600000  * -43.31800000  *
   971       H         66.74000000  *  141.99100000  * -42.33200000  *
   972       H         67.72600000  *  141.36800000  * -43.67100000  *
   973       C         68.06100000  *  143.45100000  * -43.20700000  *
   974       H         68.15800000  *  143.91400000  * -44.19300000  *
   975       H         67.58700000  *  144.18100000  * -42.54100000  *
   976       N         69.40100000  *  143.06000000  * -42.69500000  *
   977       H         69.88100000  *  142.46000000  * -43.37900000  *
   978       H         69.97400000  *  143.87400000  * -42.51300000  *
   979       H         69.31700000  *  142.54700000  * -41.82700000  *
   980       C         63.26800000  *  142.23200000  * -45.83500000  *
   981       O         63.62600000  *  143.07500000  * -46.65700000  *
   982       N         62.11200000  *  142.30300000  * -45.18600000  *
   983       C         61.62600000  *  141.34600000  * -44.17100000  *
   984       H         62.10000000  *  141.53200000  * -43.20900000  *
   985       H         61.74500000  *  140.31100000  * -44.47600000  *
   986       C         60.16400000  *  141.66900000  * -44.09500000  *
   987       H         59.73700000  *  141.34900000  * -43.14300000  *
   988       H         59.63700000  *  141.20600000  * -44.93200000  *
   989       C         60.16000000  *  143.18900000  * -44.24800000  *
   990       H         60.51600000  *  143.64900000  * -43.32100000  *
   991       H         59.20200000  *  143.56500000  * -44.57400000  *
   992       C         61.14500000  *  143.38000000  * -45.40300000  *
   993       H         60.63400000  *  143.20500000  * -46.34500000  *
   994       C         61.77100000  *  144.77100000  * -45.44800000  *
   995       O         61.39200000  *  145.58400000  * -46.27300000  *
   996       N         62.73200000  *  145.09200000  * -44.56300000  *
   997       H         62.97900000  *  144.40800000  * -43.86400000  *
   998       C         63.44300000  *  146.39500000  * -44.54500000  *
   999       H         62.70400000  *  147.19700000  * -44.47600000  *
  1000       C         64.37300000  *  146.48700000  * -43.32200000  *
  1001       H         65.06000000  *  145.63900000  * -43.32900000  *
  1002       H         64.96900000  *  147.39800000  * -43.41000000  *
  1003       C         63.64100000  *  146.54500000  * -41.97600000  *
  1004       H         62.92900000  *  147.37100000  * -41.99800000  *
  1005       H         63.09600000  *  145.61700000  * -41.81800000  *
  1006       C         64.61100000  *  146.73900000  * -40.80900000  *
  1007       O         65.62400000  *  146.06300000  * -40.68900000  *
  1008       N         64.34600000  *  147.65400000  * -39.90200000  *
  1009       H         64.99700000  *  147.77100000  * -39.13900000  *
  1010       H         63.54100000  *  148.25500000  * -39.99000000  *
  1011       C         64.30000000  *  146.67800000  * -45.79700000  *
  1012       O         64.53900000  *  147.83400000  * -46.14000000  *
  1013       N         64.76500000  *  145.62900000  * -46.47900000  *
  1014       H         64.45300000  *  144.71200000  * -46.19200000  *
  1015       C         65.54000000  *  145.69200000  * -47.71900000  *
  1016       H         66.10000000  *  146.62800000  * -47.75400000  *
  1017       C         66.55500000  *  144.51800000  * -47.75100000  *
  1018       H         66.06100000  *  143.59500000  * -47.46000000  *
  1019       H         66.90900000  *  144.37800000  * -48.77000000  *
  1020       C         67.80100000  *  144.72200000  * -46.89800000  *
  1021       O         68.12200000  *  145.81500000  * -46.45900000  *
  1022       N         68.55700000  *  143.67800000  * -46.63300000  *
  1023       H         69.44100000  *  143.83200000  * -46.17600000  *
  1024       H         68.29900000  *  142.72600000  * -46.87900000  *
  1025       C         64.63300000  *  145.70400000  * -48.96900000  *
  1026       O         65.15500000  *  145.62000000  * -50.07900000  *
  1027       N         63.30000000  *  145.80300000  * -48.83400000  *
  1028       H         62.89500000  *  145.87300000  * -47.90900000  *
  1029       C         62.40600000  *  145.84500000  * -49.97900000  *
  1030       H         62.94700000  *  145.74800000  * -50.91900000  *
  1031       C         61.36900000  *  144.72100000  * -49.88900000  *
  1032       H         60.76900000  *  144.86100000  * -48.99200000  *
  1033       H         60.74400000  *  144.79800000  * -50.77200000  *
  1034       C         62.03600000  *  143.32400000  * -49.85900000  *
  1035       H         62.67100000  *  143.24000000  * -48.98800000  *
  1036       C         61.00200000  *  142.26000000  * -49.77100000  *
  1037       H         60.24600000  *  142.42800000  * -50.53400000  *
  1038       H         61.44700000  *  141.27100000  * -49.89000000  *
  1039       H         60.52000000  *  142.31900000  * -48.79800000  *
  1040       C         62.89500000  *  143.12600000  * -51.08400000  *
  1041       H         63.82900000  *  143.66800000  * -50.95600000  *
  1042       H         63.12900000  *  142.06900000  * -51.20900000  *
  1043       H         62.39300000  *  143.49200000  * -51.96600000  *
  1044       C         61.76300000  *  147.21800000  * -49.95200000  *
  1045       O         61.15000000  *  147.60200000  * -48.96600000  *
  1046       N         61.88900000  *  147.98300000  * -51.02900000  *
  1047       H         62.38000000  *  147.61200000  * -51.83700000  *
  1048       C         61.44400000  *  149.37600000  * -51.06100000  *
  1049       H         61.05900000  *  149.67600000  * -50.08900000  *
  1050       C         62.61700000  *  150.29000000  * -51.39400000  *
  1051       H         62.94200000  *  150.08400000  * -52.41400000  *
  1052       H         62.25700000  *  151.31500000  * -51.33900000  *
  1053       C         63.82100000  *  150.13400000  * -50.45900000  *
  1054       H         64.24700000  *  149.13800000  * -50.56700000  *
  1055       C         64.84600000  *  151.16300000  * -50.88500000  *
  1056       H         64.47400000  *  152.15200000  * -50.63400000  *
  1057       H         65.78400000  *  150.96400000  * -50.37600000  *
  1058       H         65.00800000  *  151.13100000  * -51.95500000  *
  1059       C         63.50000000  *  150.37900000  * -48.98700000  *
  1060       H         62.87200000  *  149.57400000  * -48.61500000  *
  1061       H         64.41900000  *  150.38400000  * -48.40200000  *
  1062       H         62.98300000  *  151.33100000  * -48.86400000  *
  1063       C         60.32200000  *  149.56200000  * -52.06400000  *
  1064       O         60.42000000  *  149.10400000  * -53.19000000  *
  1065       N         59.26800000  *  150.25600000  * -51.67700000  *
  1066       H         59.36500000  *  150.76300000  * -50.80000000  *
  1067       C         58.08300000  *  150.44700000  * -52.50800000  *
  1068       H         58.17300000  *  149.92400000  * -53.45700000  *
  1069       C         56.81900000  *  149.90600000  * -51.78600000  *
  1070       H         55.94300000  *  150.08700000  * -52.41500000  *
  1071       C         56.95000000  *  148.40400000  * -51.54300000  *
  1072       H         57.75300000  *  148.18300000  * -50.83300000  *
  1073       H         56.01300000  *  148.00400000  * -51.15200000  *
  1074       H         57.15800000  *  147.91500000  * -52.48900000  *
  1075       C         56.64700000  *  150.60600000  * -50.43300000  *
  1076       H         57.48200000  *  150.38000000  * -49.77500000  *
  1077       H         56.60500000  *  151.68300000  * -50.57600000  *
  1078       C         55.37000000  *  150.22200000  * -49.68600000  *
  1079       H         55.48900000  *  149.24800000  * -49.22200000  *
  1080       H         55.17000000  *  150.96500000  * -48.91000000  *
  1081       H         54.52900000  *  150.16800000  * -50.38500000  *
  1082       C         57.87200000  *  151.93000000  * -52.81700000  *
  1083       O         58.38200000  *  152.79400000  * -52.10000000  *
  1084       N         57.14900000  *  152.22000000  * -53.89700000  *
  1085       H         56.70500000  *  151.48200000  * -54.43300000  *
  1086       C         56.84100000  *  153.60200000  * -54.22700000  *
  1087       H         57.16800000  *  154.27800000  * -53.43100000  *
  1088       C         57.50400000  *  154.05300000  * -55.54100000  *
  1089       H         57.21800000  *  155.07000000  * -55.80500000  *
  1090       H         58.58200000  *  154.04400000  * -55.38800000  *
  1091       C         57.19300000  *  153.14600000  * -56.70100000  *
  1092       O         56.13500000  *  152.53500000  * -56.76400000  *
  1093       N         58.11500000  *  153.07200000  * -57.64100000  *
  1094       H         57.83300000  *  152.61700000  * -58.48600000  *
  1095       H         58.88600000  *  153.71500000  * -57.62100000  *
  1096       C         55.33100000  *  153.75800000  * -54.32100000  *
  1097       O         54.57600000  *  152.79900000  * -54.11400000  *
  1098       N         54.88500000  *  154.97100000  * -54.62100000  *
  1099       H         55.52100000  *  155.73600000  * -54.79200000  *
  1100       C         53.46400000  *  155.24700000  * -54.72300000  *
  1101       H         52.92700000  *  154.82600000  * -53.87200000  *
  1102       C         53.20900000  *  156.78000000  * -54.75500000  *
  1103       H         52.16900000  *  156.98000000  * -55.02600000  *
  1104       C         53.47800000  *  157.39700000  * -53.41000000  *
  1105       H         54.52100000  *  157.25500000  * -53.13000000  *
  1106       H         53.26600000  *  158.46500000  * -53.44600000  *
[...]
 1005  H   0.85343
 1006  C   1.06683   0.81129   0.75395   0.79963
 1007  O   1.88348   1.36054   1.54883   1.78386
 1008  N   1.52760   1.35514   1.40500   1.34434
 1009  H   0.66474
 1010  H   0.69143
 1011  C   1.08406   0.76938   0.79219   0.81864
 1012  O   1.88945   1.62234   1.28562   1.71206
 1013  N   1.55260   1.52186   1.20297   1.30519
 1014  H   0.67221
 1015  C   1.07164   0.94378   1.09466   0.81920
 1016  H   0.80180
 1017  C   1.07012   1.05161   1.09000   1.16225
 1018  H   0.83546
 1019  H   0.80547
 1020  C   1.06148   0.81462   0.77972   0.76742
 1021  O   1.88128   1.75422   1.36733   1.59275
 1022  N   1.53337   1.30808   1.19447   1.60841
 1023  H   0.66712
 1024  H   0.65727
 1025  C   1.09075   0.78502   0.71236   0.85263
 1026  O   1.87724   1.77178   1.62430   1.38880
 1027  N   1.54119   1.12624   1.65979   1.18446
 1028  H   0.65023
 1029  C   1.06950   0.96891   0.98324   0.97349
 1030  H   0.81474
 1031  C   1.06728   1.06537   0.99392   1.17585
 1032  H   0.83277
 1033  H   0.84874
 1034  C   1.04099   1.01089   0.95035   1.05996
 1035  H   0.85408
 1036  C   1.04882   1.12518   1.11268   1.17379
 1037  H   0.84838
 1038  H   0.85708
 1039  H   0.86074
 1040  C   1.05133   1.14385   1.16484   1.10171
 1041  H   0.84372
 1042  H   0.86433
 1043  H   0.85146
 1044  C   1.07603   0.75420   0.84279   0.75918
 1045  O   1.87365   1.52634   1.79172   1.43825
 1046  N   1.54589   1.56179   1.17276   1.24638
 1047  H   0.64957
 1048  C   1.06502   0.98714   0.82406   1.10366
 1049  H   0.80949
 1050  C   1.06411   1.02404   1.10843   1.12124
 1051  H   0.85191
 1052  H   0.83912
 1053  C   1.04812   0.96543   1.06542   0.97889
 1054  H   0.86904
 1055  C   1.05314   1.12282   1.13749   1.15761
 1056  H   0.84370
 1057  H   0.85982
 1058  H   0.86353
 1059  C   1.05508   1.18142   1.18231   1.03327
 1060  H   0.83596
 1061  H   0.84944
 1062  H   0.84391
 1063  C   1.07522   0.79913   0.74336   0.81516
 1064  O   1.86797   1.83462   1.63245   1.34681
 1065  N   1.54187   1.18858   1.46541   1.29700
 1066  H   0.64009
 1067  C   1.07612   0.89326   1.00281   1.04020
 1068  H   0.81433
 1069  C   1.06490   1.01317   0.99075   1.02320
 1070  H   0.84075
 1071  C   1.05435   1.18016   1.03678   1.17292
 1072  H   0.84457
 1073  H   0.84619
 1074  H   0.85590
 1075  C   1.05407   1.07384   1.11946   1.02954
 1076  H   0.84539
 1077  H   0.86146
 1078  C   1.05242   1.08491   1.16027   1.13145
 1079  H   0.84645
 1080  H   0.87538
 1081  H   0.84794
 1082  C   1.08747   0.74103   0.89007   0.74162
 1083  O   1.88710   1.56830   1.57692   1.55261
 1084  N   1.54375   1.50835   1.14210   1.34201
 1085  H   0.63848
 1086  C   1.06107   0.99474   0.88861   1.01458
 1087  H   0.80597
 1088  C   1.07123   1.17446   1.11410   1.04499
 1089  H   0.83014
 1090  H   0.81796
 1091  C   1.06739   0.77887   0.79282   0.82223
 1092  O   1.88784   1.30622   1.50496   1.80267
 1093  N   1.53682   1.31191   1.52182   1.27957
 1094  H   0.69244
 1095  H   0.69592
 1096  C   1.08068   0.88480   0.77797   0.75184
 1097  O   1.89448   1.62394   1.43427   1.52552
 1098  N   1.54124   1.14548   1.19507   1.69391
 1099  H   0.67724
 1100  C   1.08541   0.83274   1.04106   1.09618
 1101  H   0.80886
 1102  C   1.08457   0.98708   0.88297   0.88968
 1103  H   0.85768
 1104  C   1.05302   1.18529   1.17306   1.05371
 1105  H   0.83929
 1106  H   0.83136
 1107  H   0.83391
 1108  O   1.85143   1.58079   1.82053   1.32265
 1109  H   0.67547
 1110  C   1.07456   0.81030   0.77005   0.81918
 1111  O   1.88601   1.23136   1.61603   1.81376
 1112  N   1.53431   1.18198   1.58161   1.22142
 1113  H   0.69163
 1114  C   1.05384   1.13289   1.13989   0.88751
 1115  H   0.84097
 1116  H   0.87148
 1117  H   0.83537
 1118  H   0.86764
 1119  C   1.10019   0.76477   0.75348   0.92061
 1120  O   1.88718   1.66992   1.57174   1.45695
 1121  N   1.54653   1.44420   1.35135   1.20813
 1122  H   0.67416
 1123  C   1.08026   0.92953   1.08561   0.92418
 1124  H   0.81014
 1125  C   1.07314   1.07891   0.95451   0.98270
 1126  H   0.84442
 1127  C   1.05754   1.18818   1.08027   1.12364
 1128  H   0.83769
 1129  H   0.85386
 1130  H   0.85836
 1131  C   1.05397   1.07458   1.13472   1.01847
 1132  H   0.85583
 1133  H   0.85329
 1134  C   1.04893   1.14432   1.14773   1.09029
 1135  H   0.85571
 1136  H   0.85941
 1137  H   0.84925
 1138  C   1.07508   0.84251   0.74920   0.79236
 1139  O   1.88228   1.88192   1.48215   1.36285
 1140  N   1.54645   1.09817   1.54197   1.34245
 1141  H   0.63198
 1142  C   1.06854   0.84983   1.04261   1.03919
 1143  H   0.81383
 1144  C   1.05971   1.08863   1.05687   1.08985
 1145  H   0.83222
 1146  H   0.84613
 1147  C   1.05091   1.08875   1.03275   1.08360
 1148  H   0.85884
 1149  H   0.83970
 1150  C   1.06113   1.07597   1.05789   1.09632
 1151  H   0.82514
 1152  H   0.82599
 1153  C   1.08160   1.03067   0.99356   1.07595
 1154  H   0.83572
 1155  H   0.82731
 1156  N   1.46370   1.23176   1.24292   1.25588
 1157  H   0.66692
 1158  H   0.69408
 1159  H   0.72998
 1160  C   1.07954   0.77849   0.75109   0.82874
 1161  O   1.88198   1.76753   1.68866   1.28787
 1162  N   1.54484   1.33061   1.42921   1.22904
 1163  H   0.64218
 1164  C   1.06978   0.91844   0.95590   1.02969
 1165  H   0.83137
 1166  C   1.06261   1.09809   1.02026   1.13378
 1167  H   0.83429
 1168  H   0.84769
 1169  C   1.05389   1.07581   0.96030   0.95844
 1170  H   0.85449
 1171  C   1.06150   1.15506   1.13909   1.09656
 1172  H   0.86223
 1173  H   0.85287
 1174  H   0.84797
 1175  C   1.05712   1.17443   1.13645   1.09474
 1176  H   0.85067
 1177  H   0.85406
 1178  H   0.86018
 1179  C   1.08617   0.79167   0.80008   0.75788
 1180  O   1.88123   1.63219   1.59696   1.53729
 1181  N   1.54431   1.36549   1.43935   1.16218
 1182  H   0.64235
 1183  C   1.06705   0.91428   0.93012   1.04624
 1184  H   0.83123
 1185  C   1.05916   1.16217   1.07740   1.16168
 1186  H   0.81492
 1187  H   0.85475
 1188  H   0.82047
 1189  C   1.08955   0.78340   0.78827   0.74596
 1190  O   1.87271   1.83483   1.35601   1.58750
 1191  N   1.54756   1.18025   1.31582   1.50689
 1192  H   0.68783
 1193  C   1.07552   0.87424   1.07637   0.93992
 1194  H   0.82883
 1195  C   1.08032   1.14664   1.18388   1.00463
 1196  H   0.80690
 1197  H   0.82721
 1198  C   1.06943   0.73516   0.73055   0.69082
 1199  O   1.88789   1.78337   1.43250   1.61658
 1200  O   1.86988   1.70151   1.52024   1.79533
 1201  C   1.08887   0.81879   0.79588   0.75050
 1202  O   1.88762   1.28261   1.80179   1.56494
 1203  N   1.56661   1.29381   1.16844   1.54241
 1204  H   0.67979
 1205  C   1.07956   1.01743   0.91714   0.95391
 1206  H   0.84147
 1207  C   1.05585   1.07978   1.20385   0.95964
 1208  H   0.81442
 1209  H   0.81746
 1210  C   1.07383   0.97100   0.97718   0.97031
 1211  C   1.08858   1.03603   1.04205   1.01356
 1212  H   0.84223
 1213  C   1.08463   0.99247   1.05615   1.01756
 1214  H   0.85951
 1215  C   1.08684   1.05801   0.99240   1.02874
 1216  H   0.84980
 1217  C   1.08962   1.03701   1.03364   0.98387
 1218  H   0.83079
 1219  C   1.08701   0.98550   1.05967   1.02003
 1220  H   0.84256
 1221  C   1.09046   0.80355   0.77412   0.76224
 1222  O   1.88498   1.44618   1.56390   1.71415
 1223  N   1.53969   1.41512   1.43590   1.13579
 1224  H   0.67956
 1225  C   1.06880   0.98267   1.07104   0.98589
 1226  H   0.81065
 1227  H   0.80377
 1228  C   1.08002   0.82917   0.77403   0.70083
 1229  O   1.87523   1.84509   1.33370   1.62730
 1230  N   1.55636   1.29273   1.23505   1.44047
 1231  H   0.66793
 1232  C   1.07734   0.89937   1.03807   0.96211
 1233  H   0.84792
 1234  C   1.06842   1.11179   0.94557   1.18041
 1235  H   0.82935
 1236  H   0.83471
 1237  C   1.05183   1.03115   0.96328   1.00779
 1238  H   0.86235
 1239  C   1.05598   1.16820   1.06366   1.16689
 1240  H   0.85653
 1241  H   0.84364
 1242  H   0.85324
 1243  C   1.05577   1.17201   1.18837   1.04698
 1244  H   0.84523
 1245  H   0.83664
 1246  H   0.86063
 1247  C   1.09753   0.86648   0.76848   0.73980
 1248  O   1.88374   1.31188   1.77535   1.56798
 1249  N   1.58481   1.28148   1.24127   1.52978
 1250  H   0.66409
 1251  C   1.06944   0.95974   0.99011   0.96184
 1252  H   0.82542
 1253  C   1.05735   1.14344   1.09962   1.16273
 1254  H   0.86467
 1255  H   0.82102
 1256  H   0.81179
 1257  C   1.07877   0.84931   0.76930   0.78356
 1258  O   1.89119   1.45720   1.52828   1.62177
 1259  N   1.54610   1.31342   1.54413   1.15316
 1260  H   0.70119
 1261  C   1.06027   0.93091   1.14795   1.09018
 1262  H   0.81720
 1263  H   0.85550
 1264  H   0.84427
 1265  H   0.88495
 1266  C   1.09729   0.75861   0.82376   0.87003
 1267  O   1.89047   1.46983   1.31229   1.86348
 1268  N   1.54396   1.50195   1.35465   1.15114
 1269  H   0.69033
 1270  C   1.07225   1.10770   0.96302   0.82249
 1271  H   0.80435
 1272  C   1.05783   1.09568   1.03312   1.13970
 1273  H   0.84205
 1274  H   0.83454
 1275  C   1.06451   0.97636   0.94771   0.96766
 1276  C   1.08135   1.01340   0.99082   1.05586
 1277  H   0.84819
 1278  C   1.08030   1.03485   1.02507   0.99572
 1279  H   0.85610
 1280  C   1.07825   1.00845   1.05283   1.02413
 1281  H   0.86157
 1282  C   1.07781   1.02493   1.00517   1.05000
 1283  H   0.86352
 1284  C   1.08045   1.06036   1.02586   0.99963
 1285  H   0.84774
 1286  C   1.08363   0.77250   0.80331   0.81743
 1287  O   1.89080   1.50326   1.62944   1.48186
 1288  N   1.53972   1.18228   1.36152   1.44848
 1289  H   0.67968
 1290  C   1.05560   1.13014   0.97849   0.99581
 1291  H   0.83569
 1292  H   0.79622
 1293  C   1.07761   0.78691   0.75812   0.80364
 1294  O   1.87344   1.54302   1.38696   1.83760
 1295  N   1.53555   1.40916   1.37229   1.18535
 1296  H   0.67071
 1297  C   1.07390   1.00538   1.18560   0.89163
 1298  H   0.81598
 1299  H   0.81523
 1300  C   1.07890   0.79688   0.76141   0.81357
 1301  O   1.89013   1.46380   1.49141   1.68860
 1302  N   1.56548   1.46209   1.16909   1.27055
 1303  C   1.06822   1.06580   0.87131   1.05076
 1304  H   0.84443
 1305  H   0.84927
 1306  C   1.05755   1.03550   1.14315   1.06236
 1307  H   0.83954
 1308  H   0.79892
 1309  C   1.05943   1.09382   0.99357   1.15164
 1310  H   0.85800
 1311  H   0.83287
 1312  C   1.07055   1.04405   0.98672   0.88028
 1313  H   0.83378
 1314  C   1.09128   0.79086   0.79438   0.82251
 1315  O   1.89224   1.35944   1.36159   1.85866
 1316  N   1.54614   1.41378   1.50938   1.12657
 1317  H   0.68439
 1318  C   1.07857   1.04419   1.12153   0.88181
 1319  H   0.80280
 1320  H   0.82129
 1321  C   1.08611   0.82896   0.73287   0.78190
 1322  O   1.88600   1.69518   1.71562   1.32123
 1323  N   1.55276   1.23483   1.41511   1.34523
 1324  H   0.68885
 1325  C   1.07636   0.85850   1.06002   0.98265
 1326  H   0.82242
 1327  C   1.05904   1.17685   1.07704   0.96485
 1328  H   0.84759
 1329  H   0.82256
 1330  C   1.05756   1.11779   1.05734   1.05029
 1331  H   0.83360
 1332  H   0.87474
 1333  C   1.06933   1.10900   1.11910   0.74613
 1334  H   0.83590
 1335  H   0.80747
 1336  N   1.53393   1.59285   1.27309   1.10590
 1337  H   0.67028
 1338  C   0.97633   0.84036   0.80648   0.79177
 1339  N   1.49889   1.55655   1.25217   1.24770
 1340  H   0.64590
 1341  H   0.65734
 1342  N   1.50166   1.59044   1.35403   1.14267
 1343  H   0.66378
 1344  H   0.65935
 1345  C   1.08051   0.77709   0.78167   0.84620
 1346  O   1.89144   1.44914   1.63063   1.54529
 1347  N   1.54292   1.55353   1.19470   1.24176
 1348  H   0.68939
 1349  C   1.09095   1.00811   1.01052   0.91199
 1350  H   0.80265
 1351  C   1.08442   0.92368   0.92609   0.88714
 1352  H   0.85295
 1353  C   1.05834   1.10776   1.12636   1.20042
 1354  H   0.82434
 1355  H   0.82831
 1356  H   0.84243
 1357  O   1.84284   1.59273   1.64034   1.56006
 1358  H   0.61077
 1359  C   1.07948   0.81700   0.79831   0.77223
 1360  O   1.88902   1.52471   1.78919   1.35900
 1361  N   1.55419   1.33137   1.29545   1.37708
 1362  H   0.64970
 1363  C   1.07366   0.97528   0.92464   1.00645
 1364  H   0.83119
 1365  C   1.05687   1.09302   1.06727   1.08510
 1366  H   0.85204
 1367  H   0.83385
 1368  C   1.05791   0.97088   0.97396   1.08291
 1369  C   1.08218   0.97475   1.07562   0.99666
 1370  H   0.85094
 1371  C   1.08558   1.08175   0.99855   1.00046
 1372  H   0.80265
 1373  C   1.06947   0.83470   0.89455   0.86569
 1374  O   1.84117   1.46097   1.54269   1.69793
 1375  H   0.59773
 1376  C   1.07121   0.99567   1.09216   1.08535
 1377  H   0.85553
 1378  C   1.07723   1.05295   1.00359   1.02158
 1379  H   0.87703
 1380  C   1.08206   0.79281   0.75813   0.82363
 1381  O   1.88960   1.35954   1.51328   1.81051
 1382  N   1.55303   1.20475   1.61373   1.14982
 1383  H   0.65937
 1384  C   1.08594   1.09414   1.05481   0.83723
 1385  H   0.85012
 1386  C   1.08026   0.85398   0.86975   1.00685
 1387  H   0.87839
 1388  C   1.05615   1.09548   1.13649   1.19001
 1389  H   0.83152
 1390  H   0.85639
 1391  H   0.85275
 1392  O   1.84995   1.30826   1.76176   1.64726
 1393  H   0.59901
 1394  C   1.08845   0.86126   0.77075   0.80805
 1395  O   1.89639   1.23737   1.65258   1.60049
 1396  N   1.54729   1.20481   1.30476   1.51986
 1397  H   0.69393
 1398  C   1.06723   1.01911   1.01448   1.05291
 1399  H   0.88132
 1400  H   0.84538
 1401  C   1.06960   0.85157   0.75625   0.78799
 1402  O   1.89315   1.66795   1.37977   1.51105
 1403  N   1.55715   1.14860   1.53512   1.33757
 1404  H   0.68936
 1405  C   1.07225   0.82265   0.97450   1.14184
 1406  H   0.83255
 1407  C   1.05672   1.16616   1.00919   1.02557
 1408  H   0.84877
 1409  H   0.82953
 1410  C   1.06029   1.20400   0.98258   1.16477
 1411  H   0.83422
 1412  H   0.83609
 1413  C   1.06205   0.73970   0.72255   0.73463
 1414  O   1.89254   1.42785   1.79733   1.60807
 1415  O   1.88368   1.53559   1.58073   1.81789
 1416  C   1.09488   0.76519   0.86732   0.74678
 1417  O   1.88695   1.65418   1.65743   1.40348
 1418  N   1.54799   1.31559   1.19227   1.48953
 1419  H   0.67091
 1420  C   1.07026   1.04644   0.86923   1.02939
 1421  H   0.87192
 1422  C   1.05523   1.03134   1.04097   0.95566
 1423  H   0.82449
 1424  C   1.05492   1.16602   1.03681   1.20505
 1425  H   0.86126
 1426  H   0.84210
 1427  H   0.82097
 1428  C   1.05353   1.16776   1.15509   1.07928
 1429  H   0.85324
 1430  H   0.84001
 1431  H   0.87305
 1432  C   1.07377   0.79256   0.74894   0.84327
 1433  O   1.88976   1.32180   1.58661   1.74368
 1434  N   1.53882   1.27328   1.49338   1.21306
 1435  H   0.68176
 1436  C   1.07438   1.00929   1.04589   0.86612
 1437  H   0.84293
 1438  C   1.06135   1.03037   1.01681   0.98004
 1439  H   0.83900
 1440  C   1.05312   1.18235   1.10070   1.10928
 1441  H   0.83359
 1442  H   0.84905
 1443  H   0.86532
 1444  C   1.05653   1.19173   1.16293   1.04354
 1445  H   0.86046
 1446  H   0.83731
 1447  H   0.83018
 1448  C   1.08282   0.80943   0.79862   0.76224
 1449  O   1.88747   1.79486   1.44268   1.43281
 1450  N   1.53612   1.24343   1.43822   1.31514
 1451  H   0.68490
 1452  C   1.07801   0.90327   0.96824   1.14042
 1453  H   0.81618
 1454  C   1.07867   0.93189   0.84247   0.98933
 1455  H   0.87344
 1456  C   1.05580   1.09999   1.13384   1.18160
 1457  H   0.84020
 1458  H   0.82852
 1459  H   0.84562
 1460  O   1.85211   1.45294   1.47031   1.77146
 1461  H   0.66540
 1462  C   1.07533   0.76595   0.82454   0.81395
 1463  O   1.88678   1.45216   1.86774   1.32176
 1464  N   1.53707   1.58477   1.12333   1.28796
 1465  H   0.68733
 1466  C   1.05223   1.16009   0.87619   1.13278
 1467  H   0.82179
 1468  H   0.85363
 1469  H   0.86641
 1470  H   0.86946
 1471  C   1.10170   0.76410   0.81171   0.89547
 1472  O   1.88718   1.42761   1.33476   1.87146
 1473  N   1.55039   1.52610   1.36327   1.14168
 1474  H   0.68719
 1475  C   1.07790   1.09047   1.02958   0.79370
 1476  H   0.81273
 1477  C   1.05937   1.13171   1.00684   1.09917
 1478  H   0.81544
 1479  H   0.82655
 1480  C   1.06837   0.97629   0.98733   0.99790
 1481  C   1.08107   0.99051   1.01960   1.00403
 1482  H   0.84553
 1483  C   1.07574   1.10240   1.04752   1.06488
 1484  H   0.82527
 1485  C   1.07249   0.88875   0.88828   0.88312
 1486  O   1.84178   1.33085   1.60077   1.72831
 1487  H   0.65407
 1488  C   1.07530   0.98852   1.10181   1.09828
 1489  H   0.83443
 1490  C   1.08718   1.07429   0.98134   0.97205
 1491  H   0.84062
 1492  C   1.08199   0.80328   0.78090   0.81050
 1493  O   1.89298   1.77878   1.64267   1.23668
 1494  N   1.53510   1.26482   1.54063   1.17726
 1495  H   0.69017
 1496  C   1.05806   0.92149   1.08514   1.15576
 1497  H   0.83211
 1498  H   0.85588
 1499  H   0.85027
 1500  H   0.86590
 1501  C   1.10298   0.82980   0.87807   0.75941
 1502  O   1.89043   1.34350   1.83482   1.42341
 1503  N   1.55422   1.37694   1.20568   1.47149
 1504  H   0.69153
 1505  C   1.07913   0.97651   0.84383   1.12473
 1506  H   0.81509
 1507  C   1.05898   0.98049   1.00848   1.06738
 1508  H   0.86932
 1509  C   1.05192   1.15807   1.05414   1.18178
 1510  H   0.83705
 1511  H   0.85328
 1512  H   0.83586
 1513  C   1.04804   1.00398   1.12235   1.09025
 1514  H   0.86270
 1515  H   0.86404
 1516  C   1.04889   1.11943   1.13504   1.13905
 1517  H   0.85406
 1518  H   0.85502
 1519  H   0.85424
 1520  C   1.07241   0.86793   0.76273   0.76283
 1521  O   1.88565   1.52998   1.48959   1.60564
 1522  N   1.54257   1.16438   1.44799   1.40499
 1523  H   0.70093
 1524  C   1.06816   0.88839   1.14588   1.09859
 1525  H   0.85021
 1526  H   0.86149
 1527  H   0.82828
 1528  H   0.86145
 1529  C   1.10310   0.85217   0.75657   0.84826
 1530  O   1.89241   1.78025   1.57461   1.31052
 1531  N   1.53870   1.27065   1.41802   1.30159
 1532  H   0.68195
 1533  C   1.05772   0.87984   1.04693   1.01918
 1534  H   0.82187
 1535  C   1.06044   1.03592   1.11704   1.10595
 1536  H   0.84115
 1537  H   0.84476
 1538  C   1.04471   0.99070   0.96549   1.05991
 1539  H   0.87897
 1540  C   1.05428   1.16059   1.06579   1.18113
 1541  H   0.84384
 1542  H   0.84599
 1543  H   0.85098
 1544  C   1.05258   1.12505   1.16963   1.11029
 1545  H   0.86013
 1546  H   0.84661
 1547  H   0.84028
 1548  C   1.08016   0.74531   0.87771   0.77758
 1549  O   1.88741   1.52387   1.42214   1.71272
 1550  N   1.54034   1.59634   1.20255   1.20246
 1551  H   0.67703
 1552  C   1.06915   1.04483   0.93919   0.93176
 1553  H   0.81907
 1554  C   1.05603   1.16688   1.05745   1.01497
 1555  H   0.83519
 1556  H   0.83306
 1557  C   1.05726   1.12828   1.10540   1.02238
 1558  H   0.84037
 1559  H   0.82491
 1560  C   1.06735   1.16593   0.93388   0.90757
 1561  H   0.81984
 1562  H   0.83912
 1563  N   1.52345   1.14360   1.42293   1.39787
 1564  H   0.66729
 1565  C   0.99026   0.79762   0.80747   0.81359
 1566  N   1.51441   1.10627   1.46172   1.48367
 1567  H   0.64497
 1568  H   0.65947
 1569  N   1.50484   1.23297   1.41662   1.42937
 1570  H   0.66023
 1571  H   0.65733
 1572  C   1.07535   0.86283   0.78967   0.77454
 1573  O   1.88869   1.59528   1.59606   1.52484
 1574  N   1.53736   1.18919   1.25279   1.49237
 1575  H   0.67740
 1576  C   1.08121   0.82482   1.13533   1.04178
 1577  H   0.82647
 1578  C   1.05986   1.15849   1.08184   0.99923
 1579  H   0.84370
 1580  H   0.84948
 1581  C   1.04876   1.08022   0.97182   0.94684
 1582  H   0.87016
 1583  C   1.05530   1.15964   1.15759   1.09062
 1584  H   0.86742
 1585  H   0.86609
 1586  H   0.85347
 1587  C   1.05657   1.16156   1.09293   1.15427
 1588  H   0.84556
 1589  H   0.86921
 1590  H   0.84551
 1591  C   1.07454   0.75909   0.76295   0.73180
 1592  O   1.88864   1.43278   1.84412   1.57957
 1593  O   1.89201   1.52698   1.54849   1.77874

 **********************
 *                    *
 * JOB ENDED NORMALLY *
 *                    *
 **********************



 TOTAL JOB TIME:            52.74 SECONDS

 == MOPAC DONE ==
