 *******************************************************************************
 **                                                                           **
 **                              MOPAC v23.2.2                                **
 **                                                                           **
 *******************************************************************************
 **          Digital Object Identifier (DOI): 10.5281/zenodo.6511958          **
 **    Visit the DOI location for information on how to cite this program.    **
 *******************************************************************************

                              PM7 CALCULATION RESULTS

 *******************************************************************************
 *  CALCULATION DONE: (MAX THREADS = 12)             Tue Jan 27 16:02:34 2026  *
 *  PM7        - The PM7 Hamiltonian to be used
 *  MOZYME     - USE LOCALIZED M.O.s IN SOLVING THE SCF EQUATIONS
 *
 *
 *
 *                 CHARGE ON SYSTEM = +2
 *
 *
 *
 *  EPS=78.4   - USE ANDREAS KLAMT'S COSMO IMPLICIT SOLVATION MODEL
 *  1SCF       - DO 1 SCF AND THEN STOP 
 *  T=         - A TIME OF 172800.0 SECONDS REQUESTED
 *  DUMP=N     - RESTART FILE WRITTEN EVERY 7200.0 SECONDS REQUESTED
 *******************************************************************************
PM7 1SCF MOZYME CHARGE=2 EPS=78.4


   ATOM   CHEMICAL          X               Y               Z
  NUMBER   SYMBOL      (ANGSTROMS)     (ANGSTROMS)     (ANGSTROMS)

     1       H         71.69100000  *  165.23700000  * -45.36000000  *
     2       C         70.72700000  *  165.64400000  * -45.02500000  *
     3       O         70.67100000  *  166.69300000  * -44.40000000  *
     4       N         69.64800000  *  164.94600000  * -45.35400000  *
     5       H         69.74300000  *  164.08600000  * -45.86500000  *
     6       C         68.31800000  *  165.37700000  * -44.95100000  *
     7       H         68.30400000  *  166.44500000  * -44.75000000  *
     8       C         67.27900000  *  165.08100000  * -46.05800000  *
     9       H         67.27200000  *  164.02200000  * -46.29800000  *
    10       C         65.89200000  *  165.46600000  * -45.59200000  *
    11       H         65.46400000  *  166.22900000  * -46.24500000  *
    12       H         65.23700000  *  164.60600000  * -45.62700000  *
    13       H         65.87600000  *  165.89500000  * -44.58400000  *
    14       C         67.63700000  *  165.85600000  * -47.31700000  *
    15       H         68.59400000  *  165.52900000  * -47.70800000  *
    16       H         66.87900000  *  165.66900000  * -48.07700000  *
    17       H         67.68800000  *  166.92100000  * -47.10100000  *
    18       C         67.91500000  *  164.66400000  * -43.65700000  *
    19       O         67.55300000  *  165.30600000  * -42.67600000  *
    20       N         67.98400000  *  163.33800000  * -43.65800000  *
    21       H         68.28400000  *  162.85200000  * -44.48600000  *
    22       C         67.62300000  *  162.54400000  * -42.48700000  *
    23       H         67.90600000  *  163.07600000  * -41.58100000  *
    24       C         66.12800000  *  162.23500000  * -42.45900000  *
    25       H         65.92600000  *  161.47400000  * -43.20900000  *
    26       H         65.88500000  *  161.80700000  * -41.48800000  *
    27       C         65.21300000  *  163.39800000  * -42.74000000  *
    28       H         65.33100000  *  164.15700000  * -41.96400000  *
    29       H         65.45900000  *  163.81400000  * -43.69700000  *
    30       C         63.76600000  *  162.97200000  * -42.82400000  *
    31       O         63.44700000  *  162.11400000  * -43.67900000  *
    32       O         62.94800000  *  163.49400000  * -42.03400000  *
    33       C         68.34700000  *  161.22200000  * -42.57700000  *
    34       O         68.73000000  *  160.78800000  * -43.66100000  *
    35       N         68.52400000  *  160.57500000  * -41.43500000  *
    36       H         68.03000000  *  160.89100000  * -40.60600000  *
    37       C         69.17300000  *  159.28200000  * -41.42100000  *
    38       H         69.95100000  *  159.22100000  * -42.17800000  *
    39       C         69.75600000  *  159.01000000  * -40.03200000  *
    40       H         70.21900000  *  159.94300000  * -39.71800000  *
    41       H         68.96300000  *  158.79100000  * -39.31600000  *
    42       C         70.79800000  *  157.89600000  * -39.98300000  *
    43       H         70.31100000  *  156.94100000  * -40.17400000  *
    44       H         71.53800000  *  158.07300000  * -40.76900000  *
    45       C         71.50100000  *  157.83200000  * -38.61800000  *
    46       H         70.74900000  *  157.59000000  * -37.86000000  *
    47       H         72.23100000  *  157.01800000  * -38.63800000  *
    48       C         72.18600000  *  159.16200000  * -38.26900000  *
    49       H         72.83200000  *  159.42500000  * -39.10900000  *
    50       H         71.41200000  *  159.93100000  * -38.15600000  *
    51       N         73.00000000  *  159.10500000  * -37.02500000  *
    52       H         73.70000000  *  158.37000000  * -37.07400000  *
    53       H         73.43800000  *  159.98800000  * -36.79300000  *
    54       H         72.39100000  *  158.85400000  * -36.25100000  *
    55       C         68.06200000  *  158.28700000  * -41.74800000  *
    56       O         67.16300000  *  158.08100000  * -40.94600000  *
    57       N         68.03400000  *  157.70600000  * -42.95100000  *
    58       H         68.83400000  *  157.82200000  * -43.55300000  *
    59       C         66.97000000  *  156.75700000  * -43.35200000  *
    60       H         66.02100000  *  157.29700000  * -43.36400000  *
    61       C         67.20700000  *  156.19600000  * -44.77000000  *
    62       H         68.26300000  *  155.94700000  * -44.88500000  *
    63       C         66.37800000  *  154.92900000  * -45.01400000  *
    64       H         65.32500000  *  155.12000000  * -44.80100000  *
    65       H         66.49400000  *  154.61700000  * -46.04000000  *
    66       H         66.71400000  *  154.10900000  * -44.38500000  *
    67       C         66.81800000  *  157.26300000  * -45.80800000  *
    68       H         65.73200000  *  157.36100000  * -45.84600000  *
    69       H         67.21500000  *  158.21300000  * -45.46900000  *
    70       C         67.34800000  *  157.00100000  * -47.22500000  *
    71       H         66.91900000  *  156.09300000  * -47.64100000  *
    72       H         67.07800000  *  157.83400000  * -47.87200000  *
    73       H         68.43100000  *  156.91100000  * -47.20600000  *
    74       C         66.80500000  *  155.63500000  * -42.32000000  *
    75       O         65.68900000  *  155.33500000  * -41.89000000  *
    76       N         67.92100000  *  155.02700000  * -41.92300000  *
    77       H         68.81000000  *  155.32500000  * -42.30700000  *
    78       C         67.93500000  *  153.99400000  * -40.90000000  *
    79       H         67.52800000  *  154.40300000  * -39.97400000  *
    80       H         67.30700000  *  153.16100000  * -41.21800000  *
    81       C         69.33200000  *  153.46400000  * -40.61800000  *
    82       O         70.30800000  *  153.77400000  * -41.30600000  *
    83       N         69.40400000  *  152.63600000  * -39.58500000  *
    84       H         68.55300000  *  152.41900000  * -39.08500000  *
    85       C         70.63600000  *  152.01300000  * -39.11700000  *
    86       H         71.46600000  *  152.68500000  * -39.33500000  *
    87       C         70.55200000  *  151.84300000  * -37.59100000  *
    88       H         69.70100000  *  151.21100000  * -37.33700000  *
    89       H         71.46700000  *  151.37000000  * -37.25400000  *
    90       C         70.43600000  *  153.19700000  * -36.86700000  *
    91       H         71.26700000  *  153.83100000  * -37.18700000  *
    92       H         69.50800000  *  153.69200000  * -37.16100000  *
    93       C         70.45300000  *  153.05000000  * -35.33600000  *
    94       O         69.65300000  *  152.26200000  * -34.78200000  *
    95       O         71.24000000  *  153.76200000  * -34.67000000  *
    96       C         70.86700000  *  150.70000000  * -39.88800000  *
    97       O         70.08600000  *  149.75200000  * -39.77000000  *
    98       N         71.85900000  *  150.70100000  * -40.78600000  *
    99       H         72.50200000  *  151.48200000  * -40.79800000  *
   100       C         71.94800000  *  149.76000000  * -41.90800000  *
   101       H         70.94200000  *  149.51500000  * -42.24700000  *
   102       H         72.44800000  *  150.27200000  * -42.73100000  *
   103       C         72.68900000  *  148.44100000  * -41.65200000  *
   104       O         73.00900000  *  148.05600000  * -40.52900000  *
   105       N         72.97200000  *  147.73200000  * -42.74700000  *
   106       H         72.60400000  *  148.05900000  * -43.63200000  *
   107       C         73.64800000  *  146.41900000  * -42.77800000  *
   108       H         73.42400000  *  145.87400000  * -41.86000000  *
   109       C         73.11000000  *  145.59700000  * -43.95800000  *
   110       H         73.72900000  *  144.71300000  * -44.11100000  *
   111       C         71.67300000  *  145.16000000  * -43.69600000  *
   112       H         71.01000000  *  146.02700000  * -43.66500000  *
   113       H         71.35300000  *  144.48800000  * -44.49200000  *
   114       H         71.63700000  *  144.63600000  * -42.74300000  *
   115       O         73.11800000  *  146.38800000  * -45.12100000  *
   116       H         72.69600000  *  145.85700000  * -45.83700000  *
   117       C         75.17400000  *  146.49100000  * -42.88900000  *
   118       O         75.85000000  *  145.61400000  * -42.35700000  *
   119       N         75.71000000  *  147.54600000  * -43.51800000  *
   120       H         75.06100000  *  148.16900000  * -43.97100000  *
   121       C         77.15000000  *  147.76700000  * -43.76800000  *
   122       H         77.74000000  *  147.07300000  * -43.16700000  *
   123       C         77.45000000  *  147.48600000  * -45.25300000  *
   124       H         76.81500000  *  148.11500000  * -45.87900000  *
   125       H         78.48400000  *  147.75600000  * -45.46600000  *
   126       C         77.28300000  *  146.03800000  * -45.65200000  *
   127       C         78.31800000  *  145.13300000  * -45.36300000  *
   128       H         79.22700000  *  145.48000000  * -44.88500000  *
   129       C         78.16800000  *  143.77400000  * -45.67500000  *
   130       H         78.96800000  *  143.09200000  * -45.43900000  *
   131       C         76.97400000  *  143.31300000  * -46.27300000  *
   132       O         76.80400000  *  141.99100000  * -46.52200000  *
   133       H         77.46800000  *  141.47500000  * -46.02800000  *
   134       C         75.94700000  *  144.22600000  * -46.58900000  *
   135       H         75.03200000  *  143.87200000  * -47.04000000  *
   136       C         76.10700000  *  145.59000000  * -46.28500000  *
   137       H         75.31500000  *  146.28700000  * -46.51700000  *
   138       C         77.63300000  *  149.18400000  * -43.40000000  *
   139       O         78.76400000  *  149.55800000  * -43.71200000  *
   140       N         76.78500000  *  149.98400000  * -42.75200000  *
   141       H         75.88900000  *  149.61800000  * -42.46800000  *
   142       C         77.02900000  *  151.39400000  * -42.45200000  *
   143       H         77.60200000  *  151.48200000  * -41.53100000  *
   144       H         77.61400000  *  151.83300000  * -43.25000000  *
   145       C         75.71800000  *  152.16700000  * -42.29200000  *
   146       O         74.67500000  *  151.56300000  * -42.02900000  *
   147       N         75.75500000  *  153.49500000  * -42.44900000  *
   148       H         76.58800000  *  153.89400000  * -42.85900000  *
   149       C         74.59200000  *  154.32600000  * -42.21200000  *
   150       H         73.82600000  *  153.78000000  * -41.65800000  *
   151       C         74.95900000  *  155.54800000  * -41.37000000  *
   152       H         75.70700000  *  156.13900000  * -41.89300000  *
   153       C         73.73100000  *  156.40900000  * -41.13300000  *
   154       H         72.94300000  *  155.80300000  * -40.68200000  *
   155       H         73.98600000  *  157.21200000  * -40.45000000  *
   156       H         73.36800000  *  156.84900000  * -42.06500000  *
   157       C         75.54500000  *  155.09600000  * -40.05300000  *
   158       H         76.46000000  *  154.52800000  * -40.19800000  *
   159       H         75.77700000  *  155.95300000  * -39.42300000  *
   160       H         74.80500000  *  154.48400000  * -39.53200000  *
   161       C         74.01900000  *  154.79200000  * -43.53700000  *
   162       O         74.76100000  *  155.18400000  * -44.43700000  *
   163       N         72.69900000  *  154.66000000  * -43.68200000  *
   164       H         72.14900000  *  154.32700000  * -42.89900000  *
   165       C         71.97600000  *  155.13000000  * -44.86500000  *
   166       H         72.69900000  *  155.26600000  * -45.66400000  *
   167       C         70.92700000  *  154.12900000  * -45.38100000  *
   168       H         70.01800000  *  154.19600000  * -44.78200000  *
   169       C         70.59300000  *  154.49300000  * -46.83400000  *
   170       H         71.49400000  *  154.48300000  * -47.44700000  *
   171       H         69.88400000  *  153.78300000  * -47.25300000  *
   172       H         70.15400000  *  155.48700000  * -46.88100000  *
   173       C         71.43500000  *  152.68400000  * -45.31000000  *
   174       H         72.45800000  *  152.63800000  * -45.67000000  *
   175       H         71.40500000  *  152.33700000  * -44.27600000  *
   176       H         70.80400000  *  152.03000000  * -45.91000000  *
   177       C         71.34000000  *  156.47700000  * -44.56200000  *
   178       O         70.56800000  *  156.59000000  * -43.60800000  *
   179       N         71.62500000  *  157.49000000  * -45.37400000  *
   180       H         72.23900000  *  157.32200000  * -46.16900000  *
   181       C         71.01800000  *  158.79600000  * -45.21900000  *
   182       H         70.37900000  *  158.84300000  * -44.33800000  *
   183       C         72.10000000  *  159.86100000  * -45.06900000  *
   184       H         72.79900000  *  159.78100000  * -45.90500000  *
   185       H         71.63400000  *  160.84400000  * -45.14300000  *
   186       C         72.87100000  *  159.84300000  * -43.76800000  *
   187       C         72.34700000  *  160.43100000  * -42.61900000  *
   188       H         71.37700000  *  160.90600000  * -42.66800000  *
   189       C         73.06400000  *  160.45200000  * -41.42500000  *
   190       H         72.63300000  *  160.94600000  * -40.56800000  *
   191       C         74.33000000  *  159.87400000  * -41.37100000  *
   192       O         75.04700000  *  159.90100000  * -40.18700000  *
   193       H         74.69700000  *  160.54100000  * -39.56800000  *
   194       C         74.87500000  *  159.27800000  * -42.50300000  *
   195       H         75.78500000  *  158.71900000  * -42.41900000  *
   196       C         74.14000000  *  159.26700000  * -43.69600000  *
   197       H         74.51800000  *  158.73300000  * -44.56500000  *
   198       C         70.16700000  *  159.17400000  * -46.42900000  *
   199       O         70.41800000  *  158.72400000  * -47.55600000  *
   200       N         69.03400000  *  159.84000000  * -46.21200000  *
   201       H         68.84900000  *  160.14800000  * -45.26500000  *
   202       C         68.29300000  *  160.51100000  * -47.28000000  *
   203       H         68.28400000  *  159.90700000  * -48.18900000  *
   204       C         66.85000000  *  160.82800000  * -46.84000000  *
   205       H         66.33800000  *  159.90200000  * -46.58800000  *
   206       H         66.86700000  *  161.45900000  * -45.94900000  *
   207       C         66.03900000  *  161.52500000  * -47.94400000  *
   208       H         66.51300000  *  162.47000000  * -48.21200000  *
   209       H         66.01500000  *  160.88300000  * -48.82600000  *
   210       C         64.60300000  *  161.80200000  * -47.47100000  *
   211       H         64.14800000  *  160.87200000  * -47.12500000  *
   212       H         64.63300000  *  162.50700000  * -46.63900000  *
   213       C         63.76000000  *  162.38300000  * -48.61500000  *
   214       H         64.27500000  *  163.26000000  * -49.02100000  *
   215       H         63.69300000  *  161.63200000  * -49.41000000  *
   216       N         62.39600000  *  162.76500000  * -48.15900000  *
   217       H         62.43300000  *  163.48000000  * -47.44700000  *
   218       H         61.84600000  *  163.13500000  * -48.92300000  *
   219       H         61.89700000  *  161.97500000  * -47.77600000  *
   220       C         69.09600000  *  161.76900000  * -47.51100000  *
   221       O         69.32200000  *  162.50500000  * -46.55400000  *
   222       N         69.55500000  *  162.00600000  * -48.72500000  *
   223       H         69.34400000  *  161.34200000  * -49.46700000  *
   224       C         70.34900000  *  163.18200000  * -49.01700000  *
   225       H         70.22500000  *  163.93500000  * -48.24000000  *
   226       C         71.81400000  *  162.79200000  * -49.07000000  *
   227       H         71.97800000  *  162.06700000  * -49.86400000  *
   228       H         72.42900000  *  163.67700000  * -49.23900000  *
   229       H         72.10500000  *  162.33200000  * -48.12600000  *
   230       C         69.94400000  *  163.83800000  * -50.32200000  *
   231       O         69.22100000  *  163.25100000  * -51.12800000  *
   232       N         70.40700000  *  165.06400000  * -50.52400000  *
   233       H         70.93200000  *  165.53000000  * -49.79600000  *
   234       C         70.10800000  *  165.77900000  * -51.74600000  *
   235       H         69.54100000  *  165.15900000  * -52.44400000  *
   236       H         69.52200000  *  166.69100000  * -51.53000000  *
   237       H         71.05900000  *  166.04700000  * -52.23900000  *
   238       H         68.08600000  *  164.80700000  * -56.55000000  *
   239       C         68.21200000  *  164.39600000  * -55.53600000  *
   240       O         69.28600000  *  164.50800000  * -54.94200000  *
   241       N         67.13500000  *  163.82300000  * -55.01100000  *
   242       H         66.34000000  *  163.66800000  * -55.61500000  *
   243       C         67.13600000  *  163.21200000  * -53.68800000  *
   244       H         67.86300000  *  163.70700000  * -53.05000000  *
   245       C         65.75500000  *  163.32300000  * -53.02900000  *
   246       H         64.97700000  *  163.06900000  * -53.75000000  *
   247       C         65.64800000  *  162.36600000  * -51.85200000  *
   248       H         66.47200000  *  162.51800000  * -51.15200000  *
   249       H         64.69700000  *  162.53800000  * -51.34700000  *
   250       H         65.65200000  *  161.33900000  * -52.20000000  *
   251       C         65.54000000  *  164.75000000  * -52.56600000  *
   252       H         65.62600000  *  165.42400000  * -53.41600000  *
   253       H         64.53500000  *  164.85100000  * -52.15900000  *
   254       H         66.28400000  *  165.00300000  * -51.81000000  *
   255       C         67.52600000  *  161.76000000  * -53.84700000  *
   256       O         66.97900000  *  161.02800000  * -54.68200000  *
   257       N         68.49600000  *  161.34900000  * -53.04800000  *
   258       H         68.91100000  *  161.99700000  * -52.39100000  *
   259       C         69.01100000  *  159.99200000  * -53.10200000  *
   260       H         68.34600000  *  159.34100000  * -53.67900000  *
   261       C         70.37400000  *  159.97400000  * -53.81600000  *
   262       H         70.77500000  *  158.96500000  * -53.87500000  *
   263       C         70.21400000  *  160.50700000  * -55.21300000  *
   264       H         69.95700000  *  161.56600000  * -55.19000000  *
   265       H         71.15100000  *  160.39100000  * -55.75600000  *
   266       H         69.44200000  *  159.95000000  * -55.73600000  *
   267       C         71.37900000  *  160.85000000  * -53.05700000  *
   268       H         71.56500000  *  160.44500000  * -52.06400000  *
   269       H         72.31500000  *  160.84900000  * -53.61300000  *
   270       H         71.03600000  *  161.88400000  * -52.98400000  *
   271       C         69.19200000  *  159.37200000  * -51.72900000  *
   272       O         69.02000000  *  160.03600000  * -50.68600000  *
   273       N         69.38800000  *  158.06000000  * -51.70700000  *
   274       H         69.46700000  *  157.56900000  * -52.59300000  *
   275       C         69.76000000  *  157.31900000  * -50.51700000  *
   276       H         69.47700000  *  157.87800000  * -49.62600000  *
   277       C         69.00000000  *  156.00100000  * -50.49400000  *
   278       H         69.21600000  *  155.44100000  * -51.40200000  *
   279       H         69.29800000  *  155.41500000  * -49.62400000  *
   280       H         67.93100000  *  156.20700000  * -50.43700000  *
   281       C         71.27800000  *  157.13900000  * -50.53900000  *
   282       O         71.81500000  *  156.46000000  * -51.42000000  *
   283       N         71.97000000  *  157.79100000  * -49.60300000  *
   284       H         71.44500000  *  158.28300000  * -48.88900000  *
   285       C         73.41300000  *  157.73400000  * -49.53500000  *
   286       H         73.80300000  *  157.43200000  * -50.50200000  *
   287       C         73.96100000  *  159.11400000  * -49.18200000  *
   288       H         73.49200000  *  159.84000000  * -49.85100000  *
   289       H         73.62800000  *  159.35800000  * -48.16900000  *
   290       C         75.47300000  *  159.31600000  * -49.26600000  *
   291       H         75.96900000  *  158.63700000  * -48.57100000  *
   292       C         75.94900000  *  159.02000000  * -50.68400000  *
   293       H         75.44100000  *  159.71800000  * -51.34800000  *
   294       H         77.02400000  *  159.18800000  * -50.76300000  *
   295       H         75.74700000  *  157.98700000  * -50.96800000  *
   296       C         75.80400000  *  160.74000000  * -48.87900000  *
   297       H         75.43700000  *  160.94600000  * -47.87600000  *
   298       H         76.88200000  *  160.87900000  * -48.92200000  *
   299       H         75.32000000  *  161.42900000  * -49.57600000  *
   300       C         73.82100000  *  156.71600000  * -48.48500000  *
   301       O         73.39600000  *  156.78100000  * -47.33400000  *
   302       N         74.63800000  *  155.74600000  * -48.88900000  *
   303       H         74.87400000  *  155.73000000  * -49.87900000  *
   304       C         75.13800000  *  154.62800000  * -48.07600000  *
   305       H         74.61000000  *  154.58300000  * -47.12200000  *
   306       C         74.89400000  *  153.32700000  * -48.87900000  *
   307       H         74.45600000  *  153.58400000  * -49.84300000  *
   308       H         75.84100000  *  152.82700000  * -49.08800000  *
   309       C         73.94600000  *  152.30400000  * -48.25300000  *
   310       H         73.06800000  *  152.81200000  * -47.85700000  *
   311       H         73.61100000  *  151.65600000  * -49.06200000  *
   312       C         74.62000000  *  151.45100000  * -47.16300000  *
   313       H         75.61400000  *  151.14300000  * -47.49400000  *
   314       H         74.74500000  *  152.05800000  * -46.26300000  *
   315       C         73.79500000  *  150.19500000  * -46.82800000  *
   316       H         74.24800000  *  149.71200000  * -45.95700000  *
   317       H         72.78100000  *  150.49900000  * -46.54400000  *
   318       N         73.74800000  *  149.23900000  * -47.97300000  *
   319       H         74.67300000  *  148.97000000  * -48.28500000  *
   320       H         73.25800000  *  148.36600000  * -47.73800000  *
   321       H         73.24900000  *  149.63300000  * -48.76100000  *
   322       C         76.62500000  *  154.85600000  * -47.80100000  *
   323       O         77.42100000  *  154.70700000  * -48.71900000  *
   324       N         77.01700000  *  155.22600000  * -46.58100000  *
   325       H         76.29800000  *  155.26800000  * -45.86500000  *
   326       C         78.42200000  *  155.28900000  * -46.15900000  *
   327       H         79.06600000  *  155.59300000  * -46.98900000  *
   328       C         78.56700000  *  156.26000000  * -44.97900000  *
   329       H         78.02700000  *  155.87500000  * -44.10900000  *
   330       H         79.62500000  *  156.33900000  * -44.73000000  *
   331       C         78.01500000  *  157.64300000  * -45.34000000  *
   332       H         78.45100000  *  157.95800000  * -46.27300000  *
   333       H         76.93600000  *  157.57500000  * -45.50000000  *
   334       C         78.25100000  *  158.72500000  * -44.27900000  *
   335       H         77.97800000  *  159.68000000  * -44.73200000  *
   336       H         77.56000000  *  158.53300000  * -43.46900000  *
   337       C         79.67700000  *  158.85000000  * -43.70900000  *
   338       H         80.38400000  *  158.36300000  * -44.39700000  *
   339       H         79.95000000  *  159.91100000  * -43.68600000  *
   340       N         79.78800000  *  158.26900000  * -42.33500000  *
   341       H         79.63700000  *  157.26100000  * -42.37000000  *
   342       H         80.69600000  *  158.42600000  * -41.93200000  *
   343       H         79.10400000  *  158.64600000  * -41.70100000  *
   344       C         78.82300000  *  153.89100000  * -45.72900000  *
   345       O         78.09100000  *  153.31500000  * -44.93700000  *
   346       N         79.90700000  *  153.32000000  * -46.24700000  *
   347       H         80.40500000  *  153.76400000  * -47.01000000  *
   348       C         80.34300000  *  152.02200000  * -45.76800000  *
   349       H         79.49500000  *  151.49800000  * -45.35900000  *
   350       C         80.94400000  *  151.18600000  * -46.89500000  *
   351       H         81.78600000  *  151.78200000  * -47.16900000  *
   352       C         81.42400000  *  149.85200000  * -46.34500000  *
   353       H         80.65600000  *  149.35200000  * -45.75200000  *
   354       H         81.67900000  *  149.19900000  * -47.17900000  *
   355       H         82.34500000  *  149.95700000  * -45.76100000  *
   356       C         79.89700000  *  150.97600000  * -47.99700000  *
   357       H         79.60200000  *  151.87000000  * -48.50000000  *
   358       H         80.28300000  *  150.30500000  * -48.75000000  *
   359       C         78.59100000  *  150.36100000  * -47.52600000  *
   360       H         78.17700000  *  150.90100000  * -46.69000000  *
   361       H         77.89400000  *  150.33700000  * -48.36300000  *
   362       H         78.77100000  *  149.33300000  * -47.20900000  *
   363       C         81.33300000  *  152.07100000  * -44.61400000  *
   364       O         82.16700000  *  152.98000000  * -44.51900000  *
   365       N         81.21100000  *  151.07100000  * -43.74300000  *
   366       H         80.50300000  *  150.36100000  * -43.92800000  *
   367       C         82.04400000  *  150.90200000  * -42.55200000  *
   368       H         81.47500000  *  151.18100000  * -41.66300000  *
   369       H         82.35800000  *  149.86100000  * -42.45900000  *
   370       H         82.94700000  *  151.51400000  * -42.62000000  *
   371       H         81.25700000  *  144.04600000  * -57.89900000  *
   372       C         80.50000000  *  144.84100000  * -57.88800000  *
   373       O         79.71500000  *  144.99000000  * -58.82400000  *
   374       N         80.49900000  *  145.60300000  * -56.79700000  *
   375       H         81.28000000  *  145.52500000  * -56.16600000  *
   376       C         79.57000000  *  146.70600000  * -56.61200000  *
   377       H         78.57500000  *  146.34400000  * -56.42300000  *
   378       C         80.00500000  *  147.61000000  * -55.44200000  *
   379       H         80.89800000  *  148.18000000  * -55.68500000  *
   380       C         78.90600000  *  148.60800000  * -55.12500000  *
   381       H         77.92000000  *  148.14100000  * -55.17600000  *
   382       H         79.04500000  *  148.98700000  * -54.11600000  *
   383       H         78.93800000  *  149.43600000  * -55.83300000  *
   384       C         80.32100000  *  146.76200000  * -54.20900000  *
   385       H         81.19200000  *  146.13400000  * -54.40600000  *
   386       H         80.59400000  *  147.42200000  * -53.38900000  *
   387       C         79.18400000  *  145.87900000  * -53.76500000  *
   388       H         78.77800000  *  145.31100000  * -54.59400000  *
   389       H         79.50900000  *  145.12200000  * -53.06500000  *
   390       H         78.38800000  *  146.48300000  * -53.33500000  *
   391       C         79.54300000  *  147.54500000  * -57.87900000  *
   392       O         78.48200000  *  147.77900000  * -58.45100000  *
   393       N         80.72300000  *  147.98900000  * -58.30900000  *
   394       H         81.55800000  *  147.70100000  * -57.81200000  *
   395       C         80.85900000  *  148.80400000  * -59.51100000  *
   396       H         80.33900000  *  149.74600000  * -59.38600000  *
   397       H         81.92800000  *  148.98500000  * -59.72900000  *
   398       H         80.37800000  *  148.32200000  * -60.38100000  *
   399       H         78.96400000  *  146.08700000  * -61.65600000  *
   400       C         77.87300000  *  146.08700000  * -61.51600000  *
   401       O         77.11500000  *  145.89500000  * -62.46400000  *
   402       N         77.44600000  *  146.31800000  * -60.28000000  *
   403       H         78.13400000  *  146.42500000  * -59.54900000  *
   404       C         76.02800000  *  146.35200000  * -59.94500000  *
   405       H         75.53300000  *  145.47600000  * -60.35900000  *
   406       C         75.84100000  *  146.37400000  * -58.43100000  *
   407       H         76.20500000  *  147.30400000  * -58.01800000  *
   408       H         74.76300000  *  146.35700000  * -58.24200000  *
   409       C         76.47200000  *  145.22200000  * -57.65900000  *
   410       H         77.55000000  *  145.23900000  * -57.74900000  *
   411       C         76.08000000  *  145.34100000  * -56.19200000  *
   412       H         74.99900000  *  145.23000000  * -56.07700000  *
   413       H         76.57300000  *  144.55300000  * -55.62900000  *
   414       H         76.38500000  *  146.30900000  * -55.80100000  *
   415       C         75.99600000  *  143.89000000  * -58.23600000  *
   416       H         76.41500000  *  143.73000000  * -59.22900000  *
   417       H         76.32800000  *  143.07800000  * -57.59100000  *
   418       H         74.90500000  *  143.87400000  * -58.30500000  *
   419       C         75.32200000  *  147.55900000  * -60.54800000  *
   420       O         74.09500000  *  147.56800000  * -60.66200000  *
   421       N         76.08400000  *  148.63100000  * -60.82900000  *
   422       H         77.08200000  *  148.53500000  * -60.67700000  *
   423       C         75.60100000  *  149.83300000  * -61.53400000  *
   424       H         74.83700000  *  150.33500000  * -60.94100000  *
   425       H         76.43800000  *  150.53300000  * -61.75900000  *
   426       H         75.13800000  *  149.54900000  * -62.49200000  *
   427       H         62.79000000  *  145.77200000  * -59.27600000  *
   428       C         63.71000000  *  145.72000000  * -58.67500000  *
   429       O         63.77900000  *  145.02200000  * -57.66400000  *
   430       N         64.72400000  *  146.45200000  * -59.11400000  *
   431       H         64.63800000  *  147.05100000  * -59.92700000  *
   432       C         65.97100000  *  146.53500000  * -58.38100000  *
   433       H         65.88400000  *  146.09200000  * -57.38600000  *
   434       C         67.11600000  *  145.87700000  * -59.11400000  *
   435       H         67.33600000  *  146.42600000  * -60.03000000  *
   436       C         68.35100000  *  145.87800000  * -58.21400000  *
   437       H         68.14700000  *  145.31400000  * -57.31800000  *
   438       H         69.21000000  *  145.44500000  * -58.72400000  *
   439       H         68.64100000  *  146.89000000  * -57.94500000  *
   440       C         66.72800000  *  144.44400000  * -59.47800000  *
   441       H         66.54900000  *  143.87300000  * -58.56400000  *
   442       H         65.81500000  *  144.42400000  * -60.06800000  *
   443       C         67.77400000  *  143.72700000  * -60.29600000  *
   444       H         68.68300000  *  143.57700000  * -59.72200000  *
   445       H         67.37700000  *  142.75300000  * -60.59800000  *
   446       H         68.02300000  *  144.31300000  * -61.18000000  *
   447       C         66.29500000  *  148.01000000  * -58.22000000  *
   448       O         66.21200000  *  148.78000000  * -59.18400000  *
   449       N         66.55700000  *  148.43700000  * -56.98200000  *
   450       H         66.62400000  *  147.75400000  * -56.23300000  *
   451       C         66.89600000  *  149.83200000  * -56.67900000  *
   452       H         66.07900000  *  150.47600000  * -57.00300000  *
   453       C         67.10100000  *  150.03200000  * -55.17100000  *
   454       H         67.89800000  *  149.37400000  * -54.82300000  *
   455       C         67.46600000  *  151.47700000  * -54.81400000  *
   456       H         66.63700000  *  152.14300000  * -55.04400000  *
   457       H         67.68800000  *  151.53800000  * -53.75000000  *
   458       H         68.34400000  *  151.80300000  * -55.36700000  *
   459       C         65.81600000  *  149.69800000  * -54.41200000  *
   460       H         65.55500000  *  148.65000000  * -54.52600000  *
   461       H         65.97900000  *  149.89100000  * -53.36000000  *
   462       H         64.99600000  *  150.31000000  * -54.77700000  *
   463       C         68.15400000  *  150.21600000  * -57.45100000  *
   464       O         69.18400000  *  149.54700000  * -57.33000000  *
   465       N         68.08000000  *  151.28300000  * -58.25100000  *
   466       H         67.22500000  *  151.80400000  * -58.24500000  *
   467       C         69.18900000  *  151.69800000  * -59.08000000  *
   468       H         69.52500000  *  150.81900000  * -59.63900000  *
   469       C         68.73700000  *  152.76800000  * -60.08300000  *
   470       H         67.83400000  *  152.41100000  * -60.57900000  *
   471       H         68.47700000  *  153.68100000  * -59.53700000  *
   472       C         69.79100000  *  153.06900000  * -61.13100000  *
   473       H         70.72100000  *  153.35000000  * -60.64200000  *
   474       H         69.97400000  *  152.16800000  * -61.71600000  *
   475       C         69.35100000  *  154.17900000  * -62.08100000  *
   476       H         68.50200000  *  153.81400000  * -62.66100000  *
   477       H         69.02300000  *  155.05600000  * -61.52200000  *
   478       C         70.49800000  *  154.55900000  * -63.02400000  *
   479       H         71.33900000  *  154.89000000  * -62.40800000  *
   480       H         70.81900000  *  153.66100000  * -63.56600000  *
   481       N         70.11800000  *  155.62600000  * -63.99700000  *
   482       H         69.74700000  *  156.41600000  * -63.48300000  *
   483       H         70.92600000  *  155.93300000  * -64.52500000  *
   484       H         69.41500000  *  155.27800000  * -64.63600000  *
   485       C         70.36000000  *  152.21400000  * -58.25300000  *
   486       O         70.19400000  *  153.07400000  * -57.38700000  *
   487       N         71.53700000  *  151.64500000  * -58.50700000  *
   488       H         71.59600000  *  150.90400000  * -59.18600000  *
   489       C         72.75000000  *  152.07400000  * -57.83600000  *
   490       H         72.53800000  *  152.52600000  * -56.87100000  *
   491       C         73.72700000  *  150.91100000  * -57.67000000  *
   492       H         73.31500000  *  150.22100000  * -56.93700000  *
   493       H         73.77900000  *  150.36900000  * -58.62000000  *
   494       C         75.16700000  *  151.27300000  * -57.28800000  *
   495       H         75.65500000  *  151.80300000  * -58.10000000  *
   496       C         75.18300000  *  152.16500000  * -56.05900000  *
   497       H         74.60800000  *  151.72100000  * -55.25200000  *
   498       H         76.21000000  *  152.29600000  * -55.73500000  *
   499       H         74.78900000  *  153.14000000  * -56.31200000  *
   500       C         75.93300000  *  149.99400000  * -57.01300000  *
   501       H         75.98300000  *  149.42100000  * -57.93300000  *
   502       H         76.94600000  *  150.24200000  * -56.71200000  *
   503       H         75.43500000  *  149.41000000  * -56.23200000  *
   504       C         73.31900000  *  153.11300000  * -58.79500000  *
   505       O         73.76900000  *  152.77900000  * -59.89700000  *
   506       N         73.26700000  *  154.36900000  * -58.37800000  *
   507       H         72.92600000  *  154.57000000  * -57.44900000  *
   508       C         73.73400000  *  155.46600000  * -59.19700000  *
   509       H         73.47500000  *  155.26500000  * -60.23600000  *
   510       C         73.02500000  *  156.74200000  * -58.76000000  *
   511       H         73.45000000  *  157.06300000  * -57.80900000  *
   512       H         73.23600000  *  157.53300000  * -59.48700000  *
   513       C         71.51300000  *  156.60300000  * -58.58700000  *
   514       H         71.27400000  *  155.80900000  * -57.88500000  *
   515       C         70.97400000  *  157.88000000  * -58.01900000  *
   516       H         71.37000000  *  158.74600000  * -58.56000000  *
   517       H         69.88800000  *  157.89100000  * -58.09300000  *
   518       H         71.22100000  *  157.96000000  * -56.96600000  *
   519       C         70.85100000  *  156.29000000  * -59.92300000  *
   520       H         71.28300000  *  155.39700000  * -60.34200000  *
   521       H         69.78900000  *  156.14400000  * -59.75100000  *
   522       H         71.00300000  *  157.12700000  * -60.60700000  *
   523       C         75.24500000  *  155.67800000  * -59.15800000  *
   524       O         75.83900000  *  156.04700000  * -60.17600000  *
   525       N         75.86200000  *  155.44600000  * -57.99600000  *
   526       H         75.29500000  *  155.17900000  * -57.20400000  *
   527       C         77.30800000  *  155.64700000  * -57.82900000  *
   528       H         77.80800000  *  155.40400000  * -58.76600000  *
   529       C         77.60000000  *  157.11700000  * -57.51900000  *
   530       H         76.91700000  *  157.54400000  * -56.80300000  *
   531       H         78.58200000  *  157.17000000  * -57.04800000  *
   532       C         77.65600000  *  157.97500000  * -58.75600000  *
   533       O         78.67800000  *  157.91700000  * -59.48300000  *
   534       O         76.67400000  *  158.70400000  * -59.00000000  *
   535       C         77.97900000  *  154.81700000  * -56.73400000  *
   536       O         77.37100000  *  154.52100000  * -55.70400000  *
   537       N         79.24700000  *  154.47700000  * -56.96600000  *
   538       H         79.69800000  *  154.82400000  * -57.79800000  *
   539       C         80.06100000  *  153.73800000  * -56.00300000  *
   540       H         79.55400000  *  153.69900000  * -55.05200000  *
   541       C         80.36600000  *  152.29800000  * -56.50400000  *
   542       H         79.42700000  *  151.75200000  * -56.56200000  *
   543       C         80.98100000  *  152.34300000  * -57.88400000  *
   544       H         82.06600000  *  152.43300000  * -57.82100000  *
   545       H         80.74600000  *  151.41400000  * -58.37900000  *
   546       H         80.59600000  *  153.14500000  * -58.51000000  *
   547       C         81.29900000  *  151.58800000  * -55.53900000  *
   548       H         80.81100000  *  151.54900000  * -54.57200000  *
   549       H         81.47300000  *  150.57200000  * -55.87800000  *
   550       H         82.25900000  *  152.09200000  * -55.44900000  *
   551       C         81.36500000  *  154.53600000  * -55.81000000  *
   552       O         82.27000000  *  154.48900000  * -56.64700000  *
   553       N         81.45200000  *  155.28200000  * -54.71000000  *
   554       H         80.67600000  *  155.30400000  * -54.06400000  *
   555       C         82.62100000  *  156.11100000  * -54.44300000  *
   556       H         83.20500000  *  156.21800000  * -55.35800000  *
   557       H         82.32200000  *  157.12800000  * -54.14500000  *
   558       H         83.29700000  *  155.73900000  * -53.65600000  *
   559       H         84.58000000  *  155.17100000  * -47.07300000  *
   560       C         84.22500000  *  154.98400000  * -48.09100000  *
   561       O         84.63900000  *  155.65900000  * -49.04200000  *
   562       N         83.35800000  *  153.99100000  * -48.22200000  *
   563       H         83.13600000  *  153.42800000  * -47.41700000  *
   564       C         82.77600000  *  153.65100000  * -49.50600000  *
   565       H         83.37000000  *  154.04700000  * -50.31700000  *
   566       C         82.71900000  *  152.14000000  * -49.66000000  *
   567       H         83.74000000  *  151.87500000  * -49.95700000  *
   568       H         82.64400000  *  151.54600000  * -48.78400000  *
   569       C         81.82600000  *  151.61900000  * -50.77900000  *
   570       H         80.79100000  *  151.88400000  * -50.58700000  *
   571       C         82.25800000  *  152.23100000  * -52.09200000  *
   572       H         83.31100000  *  152.49100000  * -52.08900000  *
   573       H         82.09300000  *  151.51300000  * -52.88400000  *
   574       H         81.65400000  *  153.10900000  * -52.31200000  *
   575       C         81.89900000  *  150.09400000  * -50.82200000  *
   576       H         81.91300000  *  149.66400000  * -49.82700000  *
   577       H         81.05200000  *  149.70600000  * -51.39100000  *
   578       H         82.82500000  *  149.80300000  * -51.32100000  *
   579       C         81.36700000  *  154.23200000  * -49.54800000  *
   580       O         80.51800000  *  153.85700000  * -48.74500000  *
   581       N         81.13100000  *  155.16100000  * -50.46700000  *
   582       H         81.84500000  *  155.34800000  * -51.16200000  *
   583       C         79.82200000  *  155.78100000  * -50.60800000  *
   584       H         79.27400000  *  155.67000000  * -49.68700000  *
   585       C         79.96700000  *  157.27800000  * -50.86800000  *
   586       H         80.42300000  *  157.50400000  * -51.79700000  *
   587       H         78.95400000  *  157.66400000  * -50.98900000  *
   588       C         80.57600000  *  158.04300000  * -49.72300000  *
   589       C         79.79300000  *  158.48000000  * -48.65600000  *
   590       H         78.73500000  *  158.25400000  * -48.66900000  *
   591       C         80.35600000  *  159.18600000  * -47.59400000  *
   592       H         79.75300000  *  159.56200000  * -46.79700000  *
   593       C         81.71600000  *  159.45200000  * -47.58700000  *
   594       O         82.27600000  *  160.12500000  * -46.52100000  *
   595       H         83.20600000  *  160.30800000  * -46.74500000  *
   596       C         82.51400000  *  159.02600000  * -48.63700000  *
   597       H         83.58200000  *  159.23300000  * -48.65000000  *
   598       C         81.94100000  *  158.32800000  * -49.69800000  *
   599       H         82.57400000  *  157.98100000  * -50.50200000  *
   600       C         79.04800000  *  155.15800000  * -51.76500000  *
   601       O         79.54400000  *  155.08000000  * -52.88800000  *
   602       N         77.86300000  *  154.62200000  * -51.49600000  *
   603       H         77.53400000  *  154.64700000  * -50.53700000  *
   604       C         76.98400000  *  154.05400000  * -52.51700000  *
   605       H         77.51000000  *  154.00800000  * -53.46400000  *
   606       C         76.55500000  *  152.61900000  * -52.16900000  *
   607       H         75.86100000  *  152.65400000  * -51.33800000  *
   608       H         76.01700000  *  152.21500000  * -53.02700000  *
   609       C         77.69300000  *  151.65200000  * -51.80200000  *
   610       H         78.20300000  *  152.00200000  * -50.90500000  *
   611       C         77.12700000  *  150.26100000  * -51.52300000  *
   612       H         76.63600000  *  149.86800000  * -52.41500000  *
   613       H         77.93300000  *  149.58600000  * -51.23300000  *
   614       H         76.40700000  *  150.31300000  * -50.70800000  *
   615       C         78.70300000  *  151.53200000  * -52.93600000  *
   616       H         79.22200000  *  152.47800000  * -53.06400000  *
   617       H         79.43800000  *  150.77000000  * -52.68900000  *
   618       H         78.19400000  *  151.26800000  * -53.86400000  *
   619       C         75.78800000  *  154.98500000  * -52.67400000  *
   620       O         75.10700000  *  155.26400000  * -51.68400000  *
   621       N         75.54700000  *  155.50800000  * -53.87800000  *
   622       H         76.14500000  *  155.25500000  * -54.66000000  *
   623       C         74.40900000  *  156.37500000  * -54.09400000  *
   624       H         73.97600000  *  156.70200000  * -53.15000000  *
   625       C         74.83400000  *  157.63700000  * -54.81800000  *
   626       H         75.25500000  *  157.34500000  * -55.76600000  *
   627       C         73.61400000  *  158.52200000  * -55.10900000  *
   628       H         73.11700000  *  158.76900000  * -54.17500000  *
   629       H         73.94100000  *  159.43100000  * -55.61500000  *
   630       H         72.91600000  *  158.00900000  * -55.76200000  *
   631       C         75.84000000  *  158.38200000  * -53.94900000  *
   632       H         75.28100000  *  158.78400000  * -53.13000000  *
   633       H         76.65600000  *  157.75800000  * -53.60500000  *
   634       H         76.26100000  *  159.20400000  * -54.52500000  *
   635       C         73.31400000  *  155.64400000  * -54.85300000  *
   636       O         73.49500000  *  155.22100000  * -55.99400000  *
   637       N         72.21400000  *  155.37700000  * -54.15600000  *
   638       H         72.14600000  *  155.73200000  * -53.20600000  *
   639       C         71.03600000  *  154.70800000  * -54.69500000  *
   640       H         71.28400000  *  154.24100000  * -55.64400000  *
   641       C         70.57100000  *  153.61700000  * -53.72400000  *
   642       H         70.44300000  *  154.05500000  * -52.73500000  *
   643       H         69.59300000  *  153.26700000  * -54.04600000  *
   644       C         71.49500000  *  152.41800000  * -53.61500000  *
   645       C         71.34000000  *  151.32700000  * -54.49300000  *
   646       H         70.59000000  *  151.35500000  * -55.26900000  *
   647       C         72.15400000  *  150.18900000  * -54.36000000  *
   648       H         72.02500000  *  149.34800000  * -55.03000000  *
   649       C         73.13500000  *  150.14000000  * -53.35500000  *
   650       H         73.76300000  *  149.26400000  * -53.25300000  *
   651       C         73.29800000  *  151.23000000  * -52.48300000  *
   652       H         74.04600000  *  151.18700000  * -51.70600000  *
   653       C         72.48300000  *  152.37000000  * -52.61300000  *
   654       H         72.61000000  *  153.20500000  * -51.93700000  *
   655       C         69.91400000  *  155.72000000  * -54.93500000  *
   656       O         69.79700000  *  156.71100000  * -54.21200000  *
   657       N         69.06400000  *  155.47800000  * -55.93400000  *
   658       H         69.20500000  *  154.64400000  * -56.49500000  *
   659       C         67.78900000  *  156.20100000  * -56.04100000  *
   660       H         68.01700000  *  157.25200000  * -56.22900000  *
   661       C         66.96200000  *  155.68900000  * -57.23400000  *
   662       H         66.08700000  *  156.33100000  * -57.32800000  *
   663       H         67.55400000  *  155.77800000  * -58.14600000  *
   664       C         66.50500000  *  154.23200000  * -57.07500000  *
   665       H         67.38800000  *  153.59300000  * -57.04400000  *
   666       H         65.98100000  *  154.12400000  * -56.13000000  *
   667       C         65.55000000  *  153.74400000  * -58.16900000  *
   668       O         64.82700000  *  154.55300000  * -58.79400000  *
   669       O         65.48000000  *  152.51100000  * -58.36700000  *
   670       C         66.99700000  *  156.12200000  * -54.71700000  *
   671       O         66.99000000  *  155.08700000  * -54.04500000  *
   672       N         66.33800000  *  157.21100000  * -54.31800000  *
   673       H         66.34800000  *  158.03600000  * -54.90100000  *
   674       C         65.44700000  *  157.20900000  * -53.15500000  *
   675       H         65.89400000  *  156.60300000  * -52.36400000  *
   676       C         65.31600000  *  158.64100000  * -52.62400000  *
   677       H         66.30700000  *  158.99900000  * -52.34500000  *
   678       H         64.94400000  *  159.28300000  * -53.42400000  *
   679       C         64.40400000  *  158.78000000  * -51.42100000  *
   680       C         63.06200000  *  159.17200000  * -51.58700000  *
   681       H         62.67500000  *  159.38200000  * -52.57600000  *
   682       C         62.21400000  *  159.27900000  * -50.47000000  *
   683       H         61.18100000  *  159.57100000  * -50.60300000  *
   684       C         62.70800000  *  158.99900000  * -49.18400000  *
   685       H         62.05300000  *  159.06800000  * -48.32600000  *
   686       C         64.05200000  *  158.62300000  * -49.01500000  *
   687       H         64.43300000  *  158.40500000  * -48.02700000  *
   688       C         64.89800000  *  158.50900000  * -50.13200000  *
   689       H         65.92700000  *  158.20300000  * -50.00100000  *
   690       C         64.07600000  *  156.60700000  * -53.50600000  *
   691       O         63.47000000  *  156.99500000  * -54.50900000  *
   692       N         63.56000000  *  155.71000000  * -52.66000000  *
   693       H         64.13400000  *  155.41300000  * -51.87700000  *
   694       C         62.17000000  *  155.22700000  * -52.70800000  *
   695       H         61.64900000  *  155.69400000  * -53.54500000  *
   696       C         62.11800000  *  153.70300000  * -52.89600000  *
   697       H         62.85400000  *  153.23100000  * -52.24600000  *
   698       H         61.13100000  *  153.36100000  * -52.58200000  *
   699       C         62.33400000  *  153.28000000  * -54.36000000  *
   700       H         62.00300000  *  154.07500000  * -55.02800000  *
   701       C         63.80600000  *  152.98200000  * -54.62800000  *
   702       H         64.15900000  *  152.21500000  * -53.94200000  *
   703       H         63.94100000  *  152.65500000  * -55.65800000  *
   704       H         64.39600000  *  153.88300000  * -54.47200000  *
   705       C         61.51500000  *  152.03100000  * -54.69000000  *
   706       H         60.46500000  *  152.19800000  * -54.44600000  *
   707       H         61.58200000  *  151.82300000  * -55.75400000  *
   708       H         61.88200000  *  151.17600000  * -54.12600000  *
   709       C         61.40300000  *  155.63800000  * -51.45000000  *
   710       O         61.98300000  *  155.85700000  * -50.39100000  *
   711       N         60.08800000  *  155.78400000  * -51.57400000  *
   712       H         59.66200000  *  155.59800000  * -52.47400000  *
   713       C         59.27000000  *  156.47800000  * -50.58100000  *
   714       H         59.77200000  *  157.41800000  * -50.34400000  *
   715       C         57.92300000  *  156.83800000  * -51.21500000  *
   716       H         57.30200000  *  155.94400000  * -51.28200000  *
   717       H         57.44500000  *  157.55200000  * -50.55600000  *
   718       C         58.01700000  *  157.46900000  * -52.58500000  *
   719       N         58.21800000  *  156.77700000  * -53.78400000  *
   720       C         58.28500000  *  157.71400000  * -54.74500000  *
   721       H         58.44100000  *  157.51400000  * -55.79900000  *
   722       N         58.13900000  *  158.93900000  * -54.21400000  *
   723       H         58.15700000  *  159.80800000  * -54.73800000  *
   724       C         57.97500000  *  158.80600000  * -52.85200000  *
   725       H         57.85000000  *  159.60300000  * -52.13000000  *
   726       C         59.10300000  *  155.74400000  * -49.23600000  *
   727       O         58.94600000  *  156.40700000  * -48.21000000  *
   728       N         59.14200000  *  154.40400000  * -49.21400000  *
   729       H         59.26700000  *  153.91400000  * -50.09300000  *
   730       C         58.92700000  *  153.58000000  * -48.01000000  *
   731       H         59.43000000  *  154.06200000  * -47.17000000  *
   732       C         57.40800000  *  153.54500000  * -47.71400000  *
   733       H         57.06600000  *  154.57100000  * -47.56800000  *
   734       H         56.87700000  *  153.13700000  * -48.57500000  *
   735       C         57.02700000  *  152.73600000  * -46.46500000  *
   736       H         56.93300000  *  151.68800000  * -46.74000000  *
   737       H         57.81300000  *  152.83700000  * -45.71600000  *
   738       C         55.72200000  *  153.19600000  * -45.82500000  *
   739       O         55.70700000  *  153.86000000  * -44.80200000  *
   740       N         54.58000000  *  152.86100000  * -46.38800000  *
   741       H         53.73900000  *  153.17900000  * -45.93100000  *
   742       H         54.56500000  *  152.34000000  * -47.24600000  *
   743       C         59.53900000  *  152.16800000  * -48.16000000  *
   744       O         59.75200000  *  151.70700000  * -49.28000000  *
   745       N         59.82400000  *  151.47100000  * -47.05100000  *
   746       H         59.62300000  *  151.88800000  * -46.15600000  *
   747       C         60.23000000  *  150.05300000  * -47.05000000  *
   748       H         60.56000000  *  149.79300000  * -48.05100000  *
   749       C         61.43300000  *  149.81100000  * -46.12200000  *
   750       H         61.79000000  *  148.79500000  * -46.29300000  *
   751       H         62.24100000  *  150.48400000  * -46.40700000  *
   752       C         61.12700000  *  149.97400000  * -44.62800000  *
   753       O         60.30800000  *  149.19200000  * -44.10200000  *
   754       O         61.73500000  *  150.85800000  * -43.98400000  *
   755       C         59.06000000  *  149.10900000  * -46.71000000  *
   756       O         58.03800000  *  149.52700000  * -46.14900000  *
   757       N         59.19100000  *  147.81900000  * -47.04800000  *
   758       H         60.03800000  *  147.50900000  * -47.52500000  *
   759       C         58.10100000  *  146.88000000  * -46.84100000  *
   760       H         57.21800000  *  147.32500000  * -47.29300000  *
   761       C         58.41200000  *  145.57700000  * -47.59200000  *
   762       H         58.61300000  *  145.80400000  * -48.64400000  *
   763       H         59.28800000  *  145.12100000  * -47.15800000  *
   764       C         57.28700000  *  144.52700000  * -47.51900000  *
   765       H         57.05600000  *  144.28000000  * -46.48700000  *
   766       C         56.00700000  *  145.04400000  * -48.19600000  *
   767       H         56.23500000  *  145.37800000  * -49.20200000  *
   768       H         55.26800000  *  144.24500000  * -48.23100000  *
   769       H         55.59500000  *  145.87000000  * -47.62900000  *
   770       C         57.76800000  *  143.24900000  * -48.17500000  *
   771       H         58.61500000  *  142.85400000  * -47.62000000  *
   772       H         56.97300000  *  142.50400000  * -48.17100000  *
   773       H         58.06400000  *  143.44500000  * -49.20700000  *
   774       C         57.76400000  *  146.61300000  * -45.36900000  *
   775       O         56.60900000  *  146.37600000  * -45.03000000  *
   776       N         58.75700000  *  146.67700000  * -44.48800000  *
   777       H         59.64000000  *  147.08600000  * -44.79000000  *
   778       C         58.49100000  *  146.46700000  * -43.07300000  *
   779       H         57.97900000  *  145.55100000  * -42.87200000  *
   780       C         59.78200000  *  146.47800000  * -42.25400000  *
   781       H         60.44800000  *  145.70000000  * -42.62000000  *
   782       H         60.28600000  *  147.44000000  * -42.35600000  *
   783       C         59.49200000  *  146.22900000  * -40.76500000  *
   784       H         58.94200000  *  147.08300000  * -40.37400000  *
   785       H         58.87100000  *  145.33200000  * -40.67600000  *
   786       C         60.74500000  *  146.03800000  * -39.93500000  *
   787       H         61.36100000  *  145.25900000  * -40.37900000  *
   788       H         61.30800000  *  146.97100000  * -39.90700000  *
   789       C         60.37600000  *  145.60700000  * -38.51700000  *
   790       H         59.98500000  *  144.58900000  * -38.53700000  *
   791       H         61.27900000  *  145.61300000  * -37.90300000  *
   792       N         59.34600000  *  146.53100000  * -37.94700000  *
   793       H         58.44600000  *  146.48100000  * -38.44300000  *
   794       H         59.09000000  *  146.27800000  * -37.00400000  *
   795       H         59.61300000  *  147.50600000  * -37.97800000  *
   796       C         57.55800000  *  147.53800000  * -42.51200000  *
   797       O         56.61300000  *  147.23400000  * -41.78300000  *
   798       N         57.83700000  *  148.81000000  * -42.80900000  *
   799       H         58.67100000  *  148.99500000  * -43.37200000  *
   800       C         57.01900000  *  149.93500000  * -42.34300000  *
   801       H         56.91700000  *  149.86200000  * -41.25900000  *
   802       C         57.73000000  *  151.25600000  * -42.67300000  *
   803       H         58.76000000  *  151.19600000  * -42.31500000  *
   804       H         57.74600000  *  151.40400000  * -43.75300000  *
   805       C         57.04800000  *  152.45300000  * -41.99200000  *
   806       H         56.04800000  *  152.58400000  * -42.40600000  *
   807       H         56.95800000  *  152.25300000  * -40.92300000  *
   808       C         57.85700000  *  153.74300000  * -42.18700000  *
   809       H         58.83400000  *  153.62600000  * -41.71400000  *
   810       H         57.99800000  *  153.92900000  * -43.25300000  *
   811       C         57.11500000  *  154.92400000  * -41.55000000  *
   812       H         56.14400000  *  155.03400000  * -42.04300000  *
   813       H         56.93100000  *  154.69500000  * -40.49600000  *
   814       N         57.89000000  *  156.18600000  * -41.66300000  *
   815       H         58.05400000  *  156.43200000  * -42.62700000  *
   816       H         57.39400000  *  156.95400000  * -41.23200000  *
   817       H         58.78500000  *  156.10800000  * -41.20300000  *
   818       C         55.61000000  *  149.84500000  * -42.92700000  *
   819       O         54.63500000  *  150.09300000  * -42.22400000  *
   820       N         55.49500000  *  149.42600000  * -44.18900000  *
   821       H         56.35000000  *  149.26300000  * -44.71300000  *
   822       C         54.20500000  *  149.26000000  * -44.85200000  *
   823       H         53.62600000  *  150.17500000  * -44.72500000  *
   824       C         54.41000000  *  148.98800000  * -46.34000000  *
   825       H         54.98900000  *  149.80200000  * -46.77700000  *
   826       H         55.00200000  *  148.07700000  * -46.45200000  *
   827       C         53.12600000  *  148.85300000  * -47.10800000  *
   828       C         52.23100000  *  149.92200000  * -47.18600000  *
   829       H         52.46300000  *  150.85600000  * -46.69900000  *
   830       C         51.01500000  *  149.79500000  * -47.88400000  *
   831       H         50.32500000  *  150.62800000  * -47.91800000  *
   832       C         50.69700000  *  148.60300000  * -48.50200000  *
   833       H         49.75200000  *  148.50200000  * -49.02000000  *
   834       C         51.58700000  *  147.52100000  * -48.43200000  *
   835       H         51.33500000  *  146.58300000  * -48.91200000  *
   836       C         52.79500000  *  147.65400000  * -47.73300000  *
   837       H         53.46700000  *  146.81000000  * -47.67200000  *
   838       C         53.37400000  *  148.12200000  * -44.22700000  *
   839       O         52.16900000  *  148.28300000  * -44.00900000  *
   840       N         54.01600000  *  146.98100000  * -43.96600000  *
   841       H         55.00900000  *  146.90600000  * -44.17900000  *
   842       C         53.33800000  *  145.83600000  * -43.34100000  *
   843       H         52.47600000  *  145.52800000  * -43.93400000  *
   844       C         54.29200000  *  144.65000000  * -43.17000000  *
   845       H         55.15800000  *  145.02700000  * -42.63600000  *
   846       H         53.80700000  *  143.89200000  * -42.54700000  *
   847       C         54.73100000  *  144.00400000  * -44.46100000  *
   848       H         53.84700000  *  143.61400000  * -44.95900000  *
   849       H         55.19200000  *  144.69400000  * -45.15000000  *
   850       S         55.79700000  *  142.58100000  * -44.15400000  *
   851       C         57.05400000  *  143.29200000  * -43.18800000  *
   852       H         56.67800000  *  143.65800000  * -42.23500000  *
   853       H         57.80700000  *  142.53400000  * -42.98200000  *
   854       H         57.44300000  *  144.07900000  * -43.80900000  *
   855       C         52.84400000  *  146.26000000  * -41.95900000  *
   856       O         51.68200000  *  146.03200000  * -41.61400000  *
   857       N         53.72600000  *  146.88400000  * -41.17900000  *
   858       H         54.70100000  *  146.95700000  * -41.45300000  *
   859       C         53.34300000  *  147.35100000  * -39.84600000  *
   860       H         53.03400000  *  146.49700000  * -39.23800000  *
   861       C         54.50500000  *  148.07700000  * -39.15700000  *
   862       H         54.94100000  *  148.81500000  * -39.83000000  *
   863       H         54.12400000  *  148.60600000  * -38.28400000  *
   864       C         55.58400000  *  147.11500000  * -38.68500000  *
   865       O         55.26200000  *  145.90900000  * -38.57600000  *
   866       O         56.73300000  *  147.55200000  * -38.41700000  *
   867       C         52.15000000  *  148.27900000  * -39.96300000  *
   868       O         51.20300000  *  148.18000000  * -39.18700000  *
   869       N         52.18300000  *  149.16200000  * -40.95500000  *
   870       H         53.01600000  *  149.23700000  * -41.51800000  *
   871       C         51.08600000  *  150.10000000  * -41.17300000  *
   872       H         50.93100000  *  150.67400000  * -40.25800000  *
   873       C         51.42800000  *  151.06800000  * -42.31500000  *
   874       H         51.45500000  *  150.53900000  * -43.26600000  *
   875       H         50.66000000  *  151.83800000  * -42.36800000  *
   876       H         52.39300000  *  151.53600000  * -42.12800000  *
   877       C         49.78900000  *  149.37000000  * -41.49900000  *
   878       O         48.71100000  *  149.83600000  * -41.15600000  *
   879       N         49.90500000  *  148.22900000  * -42.16400000  *
   880       H         50.83800000  *  147.88500000  * -42.38200000  *
   881       C         48.74000000  *  147.45400000  * -42.57500000  *
   882       H         47.85700000  *  148.08600000  * -42.62800000  *
   883       H         48.90600000  *  147.02300000  * -43.58600000  *
   884       H         48.52600000  *  146.61900000  * -41.88800000  *
   885       H         72.54500000  *  137.05800000  * -55.15200000  *
   886       C         72.38600000  *  137.90500000  * -54.47400000  *
   887       O         73.28300000  *  138.71900000  * -54.28600000  *
   888       N         71.20100000  *  138.01500000  * -53.89800000  *
   889       H         70.47300000  *  137.31400000  * -54.05700000  *
   890       C         70.96800000  *  139.10000000  * -52.94900000  *
   891       H         71.50000000  *  140.00600000  * -53.22900000  *
   892       C         69.47700000  *  139.40500000  * -52.82500000  *
   893       H         69.09300000  *  139.71900000  * -53.79200000  *
   894       H         68.93000000  *  138.50600000  * -52.53300000  *
   895       C         69.17800000  *  140.45400000  * -51.81200000  *
   896       N         69.23000000  *  140.42300000  * -50.45900000  *
   897       C         68.94700000  *  141.69100000  * -50.01400000  *
   898       H         68.96900000  *  142.01200000  * -48.98400000  *
   899       N         68.72400000  *  142.47200000  * -51.05500000  *
   900       H         68.47200000  *  143.44500000  * -51.00700000  *
   901       C         68.85400000  *  141.75000000  * -52.15500000  *
   902       H         68.77100000  *  142.12600000  * -53.16500000  *
   903       C         71.52100000  *  138.65700000  * -51.58300000  *
   904       O         72.28000000  *  139.38000000  * -50.94700000  *
   905       N         71.11400000  *  137.47100000  * -51.14500000  *
   906       H         70.37100000  *  137.01600000  * -51.66500000  *
   907       C         71.55500000  *  136.88000000  * -49.87700000  *
   908       H         71.18200000  *  135.84900000  * -49.87900000  *
   909       C         73.07600000  *  136.85300000  * -49.83700000  *
   910       H         73.53100000  *  137.83300000  * -49.86900000  *
   911       H         73.36600000  *  136.47900000  * -48.85100000  *
   912       C         73.64700000  *  135.85900000  * -50.81700000  *
   913       H         73.29800000  *  134.87100000  * -50.67200000  *
   914       H         73.21600000  *  136.10500000  * -51.78700000  *
   915       C         75.11700000  *  136.08400000  * -50.99900000  *
   916       H         75.61200000  *  135.95400000  * -50.03300000  *
   917       H         75.49500000  *  135.33200000  * -51.69500000  *
   918       N         75.35800000  *  137.42700000  * -51.50600000  *
   919       H         74.62100000  *  138.12700000  * -51.38200000  *
   920       C         76.54800000  *  137.85900000  * -51.89000000  *
   921       N         77.59300000  *  137.04400000  * -51.81500000  *
   922       H         77.44700000  *  136.21200000  * -51.26800000  *
   923       H         78.49900000  *  137.44300000  * -51.92100000  *
   924       N         76.69000000  *  139.09300000  * -52.35600000  *
   925       H         75.86000000  *  139.69200000  * -52.33800000  *
   926       H         77.56200000  *  139.47800000  * -52.67100000  *
   927       C         71.03700000  *  137.42400000  * -48.54200000  *
   928       O         71.18700000  *  136.76800000  * -47.50900000  *
   929       N         70.43700000  *  138.60400000  * -48.51600000  *
   930       H         70.32800000  *  139.16900000  * -49.34700000  *
   931       C         69.93700000  *  139.07600000  * -47.23100000  *
   932       H         69.76500000  *  138.24900000  * -46.54100000  *
   933       C         70.93500000  *  140.04200000  * -46.56200000  *
   934       H         71.90900000  *  139.56600000  * -46.50900000  *
   935       H         71.04400000  *  140.94300000  * -47.17900000  *
   936       C         70.51300000  *  140.42800000  * -45.14700000  *
   937       O         70.17200000  *  139.51500000  * -44.35500000  *
   938       O         70.51000000  *  141.64400000  * -44.82500000  *
   939       C         68.58700000  *  139.73400000  * -47.37800000  *
   940       O         68.35000000  *  140.81000000  * -46.83500000  *
   941       N         67.68700000  *  139.08300000  * -48.11000000  *
   942       H         67.94300000  *  138.20800000  * -48.54500000  *
   943       C         66.35900000  *  139.64900000  * -48.29900000  *
   944       H         66.47700000  *  140.66700000  * -48.65900000  *
   945       C         65.54600000  *  138.81300000  * -49.28800000  *
   946       H         65.58300000  *  137.78400000  * -48.94500000  *
   947       H         64.50600000  *  139.14000000  * -49.25500000  *
   948       C         66.02700000  *  138.85500000  * -50.73600000  *
   949       H         67.06400000  *  138.52800000  * -50.78200000  *
   950       C         65.17300000  *  137.91700000  * -51.58300000  *
   951       H         64.15900000  *  138.30500000  * -51.68800000  *
   952       H         65.63400000  *  137.80700000  * -52.55000000  *
   953       H         65.13400000  *  136.93500000  * -51.11000000  *
   954       C         65.92100000  *  140.27700000  * -51.26400000  *
   955       H         66.42000000  *  140.99600000  * -50.63300000  *
   956       H         66.44200000  *  140.27500000  * -52.20900000  *
   957       H         64.88200000  *  140.56100000  * -51.39700000  *
   958       C         65.59400000  *  139.73400000  * -46.98200000  *
   959       O         65.58600000  *  138.79200000  * -46.16600000  *
   960       N         64.95200000  *  140.85400000  * -46.74900000  *
   961       H         64.96200000  *  141.58500000  * -47.44800000  *
   962       C         64.15700000  *  141.05800000  * -45.55500000  *
   963       H         63.54300000  *  140.16700000  * -45.42200000  *
   964       C         65.02600000  *  141.21700000  * -44.29000000  *
   965       H         64.38500000  *  141.29400000  * -43.41100000  *
   966       H         65.60900000  *  140.30500000  * -44.16300000  *
   967       C         65.98000000  *  142.41800000  * -44.29400000  *
   968       H         66.40000000  *  142.55600000  * -45.28700000  *
   969       H         65.44000000  *  143.31900000  * -44.00200000  *
   970       C         67.12100000  *  142.13200000  * -43.31300000  *
   971       H         66.70900000  *  141.86700000  * -42.33600000  *
   972       H         67.68500000  *  141.27900000  * -43.69800000  *
   973       C         68.05600000  *  143.33200000  * -43.15400000  *
   974       H         68.19100000  *  143.81200000  * -44.12900000  *
   975       H         67.58100000  *  144.05800000  * -42.48300000  *
   976       N         69.36700000  *  142.88600000  * -42.61700000  *
   977       H         69.86400000  *  142.33000000  * -43.32700000  *
   978       H         69.94500000  *  143.67400000  * -42.35400000  *
   979       H         69.24200000  *  142.30800000  * -41.79500000  *
   980       C         63.26100000  *  142.22800000  * -45.84300000  *
   981       O         63.61900000  *  143.07100000  * -46.66400000  *
   982       N         62.11200000  *  142.30300000  * -45.18600000  *
   983       C         61.62600000  *  141.34600000  * -44.17100000  *
   984       H         62.10000000  *  141.53200000  * -43.20900000  *
   985       H         61.74500000  *  140.31100000  * -44.47600000  *
   986       C         60.16400000  *  141.66900000  * -44.09500000  *
   987       H         59.73700000  *  141.34900000  * -43.14300000  *
   988       H         59.63700000  *  141.20600000  * -44.93200000  *
   989       C         60.16000000  *  143.18900000  * -44.24800000  *
   990       H         60.51600000  *  143.64900000  * -43.32100000  *
   991       H         59.20200000  *  143.56500000  * -44.57400000  *
   992       C         61.14500000  *  143.38000000  * -45.40300000  *
   993       H         60.63400000  *  143.20500000  * -46.34500000  *
   994       C         61.77100000  *  144.77100000  * -45.44800000  *
   995       O         61.39200000  *  145.58400000  * -46.27300000  *
   996       N         62.72800000  *  145.09200000  * -44.55900000  *
   997       H         62.97500000  *  144.40700000  * -43.86100000  *
   998       C         63.43800000  *  146.39400000  * -44.54300000  *
   999       H         62.70100000  *  147.19600000  * -44.45800000  *
  1000       C         64.38900000  *  146.47600000  * -43.33700000  *
  1001       H         65.07500000  *  145.62900000  * -43.36500000  *
  1002       H         64.98300000  *  147.38800000  * -43.42800000  *
  1003       C         63.68000000  *  146.52200000  * -41.97800000  *
  1004       H         62.98500000  *  147.36300000  * -41.97300000  *
  1005       H         63.11700000  *  145.60200000  * -41.82900000  *
  1006       C         64.67300000  *  146.67100000  * -40.82400000  *
  1007       O         65.67700000  *  145.97700000  * -40.73800000  *
  1008       N         64.43400000  *  147.56300000  * -39.88900000  *
  1009       H         65.09900000  *  147.65300000  * -39.13400000  *
  1010       H         63.63400000  *  148.17400000  * -39.94500000  *
  1011       C         64.27300000  *  146.67900000  * -45.80900000  *
  1012       O         64.47400000  *  147.83400000  * -46.17600000  *
  1013       N         64.75300000  *  145.62600000  * -46.47600000  *
  1014       H         64.45900000  *  144.70900000  * -46.17300000  *
  1015       C         65.53400000  *  145.67900000  * -47.71300000  *
  1016       H         66.11400000  *  146.60300000  * -47.73900000  *
  1017       C         66.52300000  *  144.48200000  * -47.74100000  *
  1018       H         66.00700000  *  143.56600000  * -47.47000000  *
  1019       H         66.89300000  *  144.34900000  * -48.75500000  *
  1020       C         67.75300000  *  144.65300000  * -46.85900000  *
  1021       O         68.04300000  *  145.71800000  * -46.34500000  *
  1022       N         68.53600000  *  143.62100000  * -46.64500000  *
  1023       H         69.41100000  *  143.78300000  * -46.17200000  *
  1024       H         68.29600000  *  142.67200000  * -46.91300000  *
  1025       C         64.63300000  *  145.70900000  * -48.96600000  *
  1026       O         65.16000000  *  145.63400000  * -50.07500000  *
  1027       N         63.30000000  *  145.80300000  * -48.83400000  *
  1028       H         62.89500000  *  145.87300000  * -47.90900000  *
  1029       C         62.40600000  *  145.84500000  * -49.97900000  *
  1030       H         62.94700000  *  145.74800000  * -50.91900000  *
  1031       C         61.36900000  *  144.72100000  * -49.88900000  *
  1032       H         60.76900000  *  144.86100000  * -48.99200000  *
  1033       H         60.74400000  *  144.79800000  * -50.77200000  *
  1034       C         62.03600000  *  143.32400000  * -49.85900000  *
  1035       H         62.67100000  *  143.24000000  * -48.98800000  *
  1036       C         61.00200000  *  142.26000000  * -49.77100000  *
  1037       H         60.24600000  *  142.42800000  * -50.53400000  *
  1038       H         61.44700000  *  141.27100000  * -49.89000000  *
  1039       H         60.52000000  *  142.31900000  * -48.79800000  *
  1040       C         62.89500000  *  143.12600000  * -51.08400000  *
  1041       H         63.82900000  *  143.66800000  * -50.95600000  *
  1042       H         63.12900000  *  142.06900000  * -51.20900000  *
  1043       H         62.39300000  *  143.49200000  * -51.96600000  *
  1044       C         61.76300000  *  147.21800000  * -49.95200000  *
  1045       O         61.15000000  *  147.60200000  * -48.96600000  *
  1046       N         61.88600000  *  147.98100000  * -51.03000000  *
  1047       H         62.37800000  *  147.61200000  * -51.83800000  *
  1048       C         61.44200000  *  149.37300000  * -51.05600000  *
  1049       H         61.05100000  *  149.66600000  * -50.08500000  *
  1050       C         62.62100000  *  150.28800000  * -51.36600000  *
  1051       H         62.95900000  *  150.09100000  * -52.38400000  *
  1052       H         62.26200000  *  151.31300000  * -51.30400000  *
  1053       C         63.81300000  *  150.11900000  * -50.41600000  *
  1054       H         64.23000000  *  149.11900000  * -50.51800000  *
  1055       C         64.86000000  *  151.13200000  * -50.82700000  *
  1056       H         64.50400000  *  152.12900000  * -50.58300000  *
  1057       H         65.78600000  *  150.91800000  * -50.29900000  *
  1058       H         65.04200000  *  151.09300000  * -51.89400000  *
  1059       C         63.47200000  *  150.36200000  * -48.94700000  *
  1060       H         62.83900000  *  149.55900000  * -48.58300000  *
  1061       H         64.38400000  *  150.36700000  * -48.35200000  *
  1062       H         62.95700000  *  151.31400000  * -48.82800000  *
  1063       C         60.32400000  *  149.56400000  * -52.06300000  *
  1064       O         60.42200000  *  149.10300000  * -53.18800000  *
  1065       N         59.26800000  *  150.25600000  * -51.67700000  *
  1066       H         59.36500000  *  150.76300000  * -50.80000000  *
  1067       C         58.08300000  *  150.44700000  * -52.50800000  *
  1068       H         58.17300000  *  149.92400000  * -53.45700000  *
  1069       C         56.81900000  *  149.90600000  * -51.78600000  *
  1070       H         55.94300000  *  150.08700000  * -52.41500000  *
  1071       C         56.95000000  *  148.40400000  * -51.54300000  *
  1072       H         57.75300000  *  148.18300000  * -50.83300000  *
  1073       H         56.01300000  *  148.00400000  * -51.15200000  *
  1074       H         57.15800000  *  147.91500000  * -52.48900000  *
  1075       C         56.64700000  *  150.60600000  * -50.43300000  *
  1076       H         57.48200000  *  150.38000000  * -49.77500000  *
  1077       H         56.60500000  *  151.68300000  * -50.57600000  *
  1078       C         55.37000000  *  150.22200000  * -49.68600000  *
  1079       H         55.48900000  *  149.24800000  * -49.22200000  *
  1080       H         55.17000000  *  150.96500000  * -48.91000000  *
  1081       H         54.52900000  *  150.16800000  * -50.38500000  *
  1082       C         57.87200000  *  151.93000000  * -52.81700000  *
  1083       O         58.38200000  *  152.79400000  * -52.10000000  *
  1084       N         57.14900000  *  152.22000000  * -53.89700000  *
  1085       H         56.70500000  *  151.48200000  * -54.43300000  *
  1086       C         56.84100000  *  153.60200000  * -54.22700000  *
  1087       H         57.16800000  *  154.27800000  * -53.43100000  *
  1088       C         57.50400000  *  154.05300000  * -55.54100000  *
  1089       H         57.21800000  *  155.07000000  * -55.80500000  *
  1090       H         58.58200000  *  154.04400000  * -55.38800000  *
  1091       C         57.19300000  *  153.14600000  * -56.70100000  *
  1092       O         56.13500000  *  152.53500000  * -56.76400000  *
  1093       N         58.11500000  *  153.07200000  * -57.64100000  *
  1094       H         57.83300000  *  152.61700000  * -58.48600000  *
  1095       H         58.88600000  *  153.71500000  * -57.62100000  *
  1096       C         55.33100000  *  153.75800000  * -54.32100000  *
  1097       O         54.57600000  *  152.79900000  * -54.11400000  *
  1098       N         54.88500000  *  154.97100000  * -54.62100000  *
  1099       H         55.52100000  *  155.73600000  * -54.79200000  *
  1100       C         53.46400000  *  155.24700000  * -54.72300000  *
  1101       H         52.92700000  *  154.82600000  * -53.87200000  *
  1102       C         53.20900000  *  156.78000000  * -54.75500000  *
  1103       H         52.16900000  *  156.98000000  * -55.02600000  *
  1104       C         53.47800000  *  157.39700000  * -53.41000000  *
  1105       H         54.52100000  *  157.25500000  * -53.13000000  *
[...]
 1005  H   0.83053
 1006  C   1.06484   0.79434   0.73738   0.79747
 1007  O   1.87715   1.41698   1.58090   1.82370
 1008  N   1.52681   1.35629   1.39489   1.32034
 1009  H   0.65863
 1010  H   0.66218
 1011  C   1.08324   0.75631   0.78126   0.81571
 1012  O   1.88460   1.66473   1.31240   1.73168
 1013  N   1.55131   1.50516   1.20103   1.30405
 1014  H   0.66591
 1015  C   1.07334   0.94865   1.09189   0.82035
 1016  H   0.80525
 1017  C   1.07057   1.05244   1.08605   1.16432
 1018  H   0.83109
 1019  H   0.79731
 1020  C   1.05684   0.80475   0.76649   0.75937
 1021  O   1.87450   1.77700   1.41609   1.60465
 1022  N   1.53131   1.30132   1.19748   1.59193
 1023  H   0.65949
 1024  H   0.65580
 1025  C   1.08778   0.78474   0.71958   0.85354
 1026  O   1.87929   1.76474   1.61076   1.38058
 1027  N   1.54113   1.12619   1.66548   1.18353
 1028  H   0.65400
 1029  C   1.06992   0.96872   0.97965   0.97450
 1030  H   0.81119
 1031  C   1.06726   1.06431   0.99783   1.17243
 1032  H   0.83757
 1033  H   0.84819
 1034  C   1.04103   1.01195   0.94629   1.06229
 1035  H   0.85544
 1036  C   1.04918   1.12586   1.11847   1.17068
 1037  H   0.84500
 1038  H   0.84905
 1039  H   0.86569
 1040  C   1.05150   1.14137   1.17163   1.09912
 1041  H   0.84501
 1042  H   0.85771
 1043  H   0.84993
 1044  C   1.07624   0.74979   0.84358   0.75514
 1045  O   1.87173   1.53864   1.79745   1.44672
 1046  N   1.54545   1.55640   1.17196   1.24602
 1047  H   0.64527
 1048  C   1.06472   0.99054   0.82553   1.10106
 1049  H   0.81286
 1050  C   1.06462   1.02163   1.10549   1.12617
 1051  H   0.84749
 1052  H   0.83992
 1053  C   1.04808   0.96645   1.07415   0.96804
 1054  H   0.86617
 1055  C   1.05367   1.12369   1.13188   1.16465
 1056  H   0.84602
 1057  H   0.84837
 1058  H   0.86064
 1059  C   1.05461   1.17603   1.17696   1.04613
 1060  H   0.84061
 1061  H   0.85276
 1062  H   0.84672
 1063  C   1.07559   0.79798   0.74258   0.81657
 1064  O   1.86889   1.83099   1.62514   1.34328
 1065  N   1.54258   1.18987   1.47166   1.29693
 1066  H   0.64290
 1067  C   1.07609   0.88869   1.00757   1.04166
 1068  H   0.81086
 1069  C   1.06436   1.01682   0.99347   1.01911
 1070  H   0.84966
 1071  C   1.05460   1.18104   1.03416   1.17675
 1072  H   0.84344
 1073  H   0.84518
 1074  H   0.85315
 1075  C   1.05394   1.06883   1.11930   1.03239
 1076  H   0.84815
 1077  H   0.86118
 1078  C   1.05258   1.08975   1.15825   1.13242
 1079  H   0.84819
 1080  H   0.87689
 1081  H   0.84618
 1082  C   1.08473   0.74046   0.88309   0.74151
 1083  O   1.88547   1.57641   1.58009   1.56454
 1084  N   1.54214   1.50280   1.14613   1.33375
 1085  H   0.64460
 1086  C   1.06293   0.97062   0.87936   1.04356
 1087  H   0.79680
 1088  C   1.07179   1.18003   1.12293   1.01965
 1089  H   0.81373
 1090  H   0.80585
 1091  C   1.06160   0.75908   0.76832   0.82255
 1092  O   1.87978   1.35822   1.57211   1.83698
 1093  N   1.53415   1.29866   1.49582   1.27178
 1094  H   0.67457
 1095  H   0.66487
 1096  C   1.08270   0.88419   0.75698   0.70977
 1097  O   1.88741   1.65614   1.47007   1.59364
 1098  N   1.54053   1.14511   1.19985   1.67084
 1099  H   0.66074
 1100  C   1.08518   0.83799   1.05638   1.08029
 1101  H   0.80405
 1102  C   1.08423   0.99077   0.86899   0.89069
 1103  H   0.84659
 1104  C   1.05387   1.18439   1.18032   1.05587
 1105  H   0.84120
 1106  H   0.82416
 1107  H   0.82911
 1108  O   1.84921   1.59097   1.82263   1.34411
 1109  H   0.64388
 1110  C   1.07365   0.78830   0.75457   0.82434
 1111  O   1.87770   1.28104   1.69040   1.84953
 1112  N   1.53340   1.19463   1.53426   1.21010
 1113  H   0.66521
 1114  C   1.05705   1.15368   1.13319   0.89424
 1115  H   0.83562
 1116  H   0.83838
 1117  H   0.83567
 1118  H   0.83979
 1119  C   1.10504   0.75499   0.73538   0.91342
 1120  O   1.88313   1.71089   1.59668   1.48269
 1121  N   1.54488   1.42805   1.34566   1.20828
 1122  H   0.65351
 1123  C   1.08074   0.93115   1.08438   0.93132
 1124  H   0.80959
 1125  C   1.07313   1.07908   0.95379   0.98260
 1126  H   0.84398
 1127  C   1.05810   1.18709   1.08397   1.12922
 1128  H   0.84362
 1129  H   0.84841
 1130  H   0.85211
 1131  C   1.05415   1.07580   1.13460   1.01857
 1132  H   0.85365
 1133  H   0.85459
 1134  C   1.04916   1.14382   1.15101   1.09056
 1135  H   0.84991
 1136  H   0.85968
 1137  H   0.84947
 1138  C   1.07216   0.84172   0.73686   0.77773
 1139  O   1.87775   1.89039   1.52085   1.39077
 1140  N   1.54471   1.10303   1.52632   1.33538
 1141  H   0.63235
 1142  C   1.06989   0.84577   1.05367   1.03771
 1143  H   0.81815
 1144  C   1.06009   1.09264   1.04610   1.09641
 1145  H   0.83597
 1146  H   0.84657
 1147  C   1.05103   1.08532   1.04434   1.07759
 1148  H   0.85032
 1149  H   0.84477
 1150  C   1.05949   1.08216   1.05463   1.09881
 1151  H   0.84067
 1152  H   0.83189
 1153  C   1.07878   1.02192   0.99750   1.07406
 1154  H   0.81186
 1155  H   0.83389
 1156  N   1.45993   1.23146   1.23066   1.25745
 1157  H   0.69194
 1158  H   0.69950
 1159  H   0.68746
 1160  C   1.07829   0.77981   0.75050   0.82542
 1161  O   1.88113   1.77267   1.69301   1.29066
 1162  N   1.54478   1.32894   1.42532   1.23085
 1163  H   0.64051
 1164  C   1.07026   0.91871   0.95777   1.02894
 1165  H   0.83210
 1166  C   1.06272   1.10007   1.01949   1.13303
 1167  H   0.83526
 1168  H   0.84499
 1169  C   1.05370   1.07065   0.96113   0.96343
 1170  H   0.85961
 1171  C   1.06222   1.16610   1.13938   1.09237
 1172  H   0.85197
 1173  H   0.84922
 1174  H   0.85271
 1175  C   1.05740   1.18264   1.13694   1.08884
 1176  H   0.85342
 1177  H   0.84833
 1178  H   0.85434
 1179  C   1.08408   0.79238   0.79921   0.75934
 1180  O   1.88082   1.63513   1.59920   1.53810
 1181  N   1.54286   1.36578   1.43884   1.15977
 1182  H   0.64554
 1183  C   1.06711   0.91537   0.92741   1.05013
 1184  H   0.82850
 1185  C   1.05942   1.16299   1.08049   1.15949
 1186  H   0.82162
 1187  H   0.83624
 1188  H   0.82595
 1189  C   1.08790   0.78624   0.78406   0.74944
 1190  O   1.87241   1.83744   1.36397   1.59735
 1191  N   1.54698   1.17433   1.32637   1.49013
 1192  H   0.67280
 1193  C   1.07715   0.87670   1.08137   0.93027
 1194  H   0.81199
 1195  C   1.07955   1.14758   1.17086   1.01197
 1196  H   0.80853
 1197  H   0.83416
 1198  C   1.07306   0.73068   0.70434   0.73404
 1199  O   1.88597   1.82049   1.53766   1.48487
 1200  O   1.87338   1.59856   1.54445   1.84189
 1201  C   1.09112   0.82158   0.79366   0.75393
 1202  O   1.88797   1.28305   1.79523   1.56243
 1203  N   1.56782   1.29360   1.17147   1.54496
 1204  H   0.68278
 1205  C   1.07959   1.01945   0.91782   0.95352
 1206  H   0.83897
 1207  C   1.05573   1.07750   1.20345   0.96261
 1208  H   0.81262
 1209  H   0.82006
 1210  C   1.07476   0.97418   0.97754   0.97005
 1211  C   1.09005   1.04130   1.04119   1.01430
 1212  H   0.83956
 1213  C   1.08862   0.98535   1.06188   1.01076
 1214  H   0.84210
 1215  C   1.08748   1.05961   0.99149   1.03206
 1216  H   0.84759
 1217  C   1.08946   1.03698   1.03644   0.98924
 1218  H   0.83144
 1219  C   1.08729   0.98645   1.06393   1.02344
 1220  H   0.83898
 1221  C   1.09009   0.80316   0.77349   0.76294
 1222  O   1.88558   1.44210   1.55726   1.71274
 1223  N   1.53994   1.41504   1.43978   1.13763
 1224  H   0.68941
 1225  C   1.06867   0.98897   1.06935   0.98023
 1226  H   0.81321
 1227  H   0.80516
 1228  C   1.07934   0.82807   0.77910   0.70480
 1229  O   1.87702   1.84057   1.32414   1.60999
 1230  N   1.55818   1.30038   1.23386   1.44842
 1231  H   0.67274
 1232  C   1.07777   0.89823   1.03329   0.96926
 1233  H   0.83236
 1234  C   1.06797   1.11389   0.95040   1.17403
 1235  H   0.84058
 1236  H   0.82874
 1237  C   1.05172   1.03127   0.96105   1.01105
 1238  H   0.86388
 1239  C   1.05602   1.16856   1.06726   1.16459
 1240  H   0.85847
 1241  H   0.84218
 1242  H   0.85527
 1243  C   1.05566   1.17200   1.18893   1.04570
 1244  H   0.84185
 1245  H   0.84018
 1246  H   0.85736
 1247  C   1.09510   0.85761   0.76625   0.72653
 1248  O   1.88123   1.32457   1.78612   1.59361
 1249  N   1.58213   1.28186   1.23296   1.52132
 1250  H   0.66070
 1251  C   1.06853   0.96467   0.99733   0.95375
 1252  H   0.83677
 1253  C   1.05864   1.13959   1.09724   1.17447
 1254  H   0.84391
 1255  H   0.80979
 1256  H   0.81039
 1257  C   1.07575   0.83431   0.75253   0.78168
 1258  O   1.88396   1.49937   1.59911   1.64933
 1259  N   1.54298   1.31146   1.51219   1.14404
 1260  H   0.67619
 1261  C   1.06251   0.92408   1.14579   1.10589
 1262  H   0.82624
 1263  H   0.82950
 1264  H   0.83897
 1265  H   0.84097
 1266  C   1.10484   0.72479   0.79434   0.87723
 1267  O   1.88387   1.53277   1.36170   1.88313
 1268  N   1.54285   1.48777   1.35141   1.14857
 1269  H   0.67719
 1270  C   1.07289   1.11769   0.96781   0.82280
 1271  H   0.80311
 1272  C   1.05750   1.08940   1.02696   1.14982
 1273  H   0.83897
 1274  H   0.82081
 1275  C   1.06420   0.97792   0.94981   0.96825
 1276  C   1.08294   1.01967   0.99403   1.05904
 1277  H   0.83927
 1278  C   1.08252   1.04692   1.02765   0.99786
 1279  H   0.84438
 1280  C   1.08141   1.00628   1.05585   1.02551
 1281  H   0.84922
 1282  C   1.08074   1.02440   1.00332   1.05485
 1283  H   0.85424
 1284  C   1.08294   1.06004   1.02696   0.99667
 1285  H   0.84065
 1286  C   1.08015   0.76644   0.78603   0.79866
 1287  O   1.88389   1.53892   1.68002   1.53328
 1288  N   1.53640   1.17556   1.34798   1.43204
 1289  H   0.67350
 1290  C   1.05814   1.14254   0.97637   0.99791
 1291  H   0.81438
 1292  H   0.78768
 1293  C   1.07324   0.78374   0.75125   0.80152
 1294  O   1.87405   1.55123   1.39445   1.84422
 1295  N   1.53538   1.40750   1.37335   1.17677
 1296  H   0.64931
 1297  C   1.07460   1.00320   1.20018   0.87783
 1298  H   0.80976
 1299  H   0.79371
 1300  C   1.08153   0.77436   0.74545   0.80721
 1301  O   1.88287   1.52187   1.53288   1.73134
 1302  N   1.56489   1.44469   1.16633   1.26711
 1303  C   1.07048   1.06912   0.86851   1.05598
 1304  H   0.83749
 1305  H   0.83912
 1306  C   1.05713   1.04733   1.13693   1.05953
 1307  H   0.84584
 1308  H   0.80769
 1309  C   1.06098   1.08150   0.98354   1.17216
 1310  H   0.83500
 1311  H   0.81964
 1312  C   1.07351   1.05251   1.00088   0.86780
 1313  H   0.81332
 1314  C   1.08822   0.76341   0.76829   0.82855
 1315  O   1.88394   1.42701   1.43552   1.88329
 1316  N   1.54313   1.40355   1.48384   1.11748
 1317  H   0.64350
 1318  C   1.08217   1.04957   1.11403   0.89134
 1319  H   0.80105
 1320  H   0.78756
 1321  C   1.08828   0.82548   0.73028   0.77831
 1322  O   1.88490   1.70330   1.72971   1.32966
 1323  N   1.55105   1.23219   1.41121   1.34481
 1324  H   0.68800
 1325  C   1.07565   0.86026   1.06397   0.97838
 1326  H   0.82210
 1327  C   1.05961   1.16891   1.07560   0.97654
 1328  H   0.83468
 1329  H   0.83901
 1330  C   1.05816   1.13843   1.07471   1.02381
 1331  H   0.82459
 1332  H   0.87158
 1333  C   1.06375   1.08748   1.10004   0.78148
 1334  H   0.85053
 1335  H   0.81933
 1336  N   1.53281   1.62691   1.28991   1.09341
 1337  H   0.64879
 1338  C   0.97598   0.83629   0.80293   0.79449
 1339  N   1.50144   1.56337   1.25850   1.24812
 1340  H   0.67467
 1341  H   0.62634
 1342  N   1.50406   1.55705   1.35352   1.14116
 1343  H   0.64460
 1344  H   0.63721
 1345  C   1.08264   0.75710   0.77355   0.84394
 1346  O   1.88771   1.48012   1.64678   1.56773
 1347  N   1.54270   1.54566   1.19744   1.23959
 1348  H   0.67294
 1349  C   1.08981   1.00011   1.00991   0.92054
 1350  H   0.80110
 1351  C   1.08507   0.93063   0.92461   0.87568
 1352  H   0.85755
 1353  C   1.05861   1.09802   1.12813   1.20583
 1354  H   0.82462
 1355  H   0.83265
 1356  H   0.83006
 1357  O   1.84277   1.58526   1.64139   1.56896
 1358  H   0.62306
 1359  C   1.07907   0.81141   0.79097   0.76107
 1360  O   1.88689   1.54031   1.79336   1.37413
 1361  N   1.55255   1.32692   1.29544   1.37638
 1362  H   0.65197
 1363  C   1.07401   0.98859   0.92687   0.99408
 1364  H   0.81710
 1365  C   1.05781   1.09517   1.06849   1.08710
 1366  H   0.84111
 1367  H   0.82740
 1368  C   1.06175   0.97099   0.97503   1.05479
 1369  C   1.08222   0.97452   1.07849   1.00078
 1370  H   0.84655
 1371  C   1.08448   1.08446   0.99528   1.00658
 1372  H   0.80086
 1373  C   1.06582   0.82528   0.89640   0.91718
 1374  O   1.84108   1.47180   1.54297   1.69765
 1375  H   0.63796
 1376  C   1.07437   0.99003   1.09175   1.06571
 1377  H   0.84636
 1378  C   1.08146   1.06458   0.99927   0.99897
 1379  H   0.85743
 1380  C   1.08179   0.77659   0.73425   0.82085
 1381  O   1.88477   1.39031   1.55592   1.82914
 1382  N   1.55035   1.20045   1.60160   1.14836
 1383  H   0.66100
 1384  C   1.08724   1.11699   1.03522   0.83712
 1385  H   0.82149
 1386  C   1.08250   0.83293   0.89041   1.00036
 1387  H   0.86791
 1388  C   1.05719   1.09889   1.14116   1.18958
 1389  H   0.83144
 1390  H   0.84544
 1391  H   0.84181
 1392  O   1.84710   1.32332   1.76613   1.66660
 1393  H   0.61577
 1394  C   1.08200   0.82826   0.76394   0.79195
 1395  O   1.88733   1.29145   1.70664   1.67681
 1396  N   1.54292   1.22794   1.27113   1.47599
 1397  H   0.64951
 1398  C   1.07064   0.98385   1.04046   1.07605
 1399  H   0.84433
 1400  H   0.80873
 1401  C   1.07026   0.85081   0.72019   0.75156
 1402  O   1.88496   1.70077   1.45752   1.55933
 1403  N   1.55351   1.14728   1.51379   1.33253
 1404  H   0.68002
 1405  C   1.07057   0.82916   0.98674   1.12839
 1406  H   0.81444
 1407  C   1.05336   1.16399   0.99097   1.05247
 1408  H   0.83984
 1409  H   0.83693
 1410  C   1.05967   1.20473   1.01139   1.13835
 1411  H   0.84316
 1412  H   0.82588
 1413  C   1.06673   0.72358   0.72091   0.72819
 1414  O   1.88742   1.47519   1.82449   1.63810
 1415  O   1.88528   1.51579   1.58344   1.81279
 1416  C   1.08688   0.77110   0.86269   0.75453
 1417  O   1.88732   1.64856   1.65308   1.40943
 1418  N   1.54584   1.31032   1.19198   1.47864
 1419  H   0.65322
 1420  C   1.07213   1.06263   0.88122   1.00736
 1421  H   0.84354
 1422  C   1.05449   1.01875   1.03231   0.97110
 1423  H   0.83635
 1424  C   1.05591   1.17742   1.04871   1.19320
 1425  H   0.84537
 1426  H   0.83586
 1427  H   0.83811
 1428  C   1.05455   1.18126   1.16756   1.06126
 1429  H   0.84071
 1430  H   0.83988
 1431  H   0.85193
 1432  C   1.07573   0.77109   0.73155   0.84229
 1433  O   1.88368   1.36384   1.63748   1.76944
 1434  N   1.53827   1.27321   1.47292   1.21104
 1435  H   0.66880
 1436  C   1.07710   1.00706   1.05454   0.86823
 1437  H   0.82259
 1438  C   1.06065   1.02661   1.01609   0.97691
 1439  H   0.84022
 1440  C   1.05418   1.18419   1.09812   1.12142
 1441  H   0.84124
 1442  H   0.84054
 1443  H   0.85069
 1444  C   1.05735   1.18977   1.16639   1.05243
 1445  H   0.84644
 1446  H   0.83520
 1447  H   0.83909
 1448  C   1.08155   0.80680   0.78623   0.75092
 1449  O   1.88312   1.81176   1.47368   1.46035
 1450  N   1.53599   1.23694   1.43133   1.31665
 1451  H   0.66467
 1452  C   1.07961   0.90434   0.96815   1.14844
 1453  H   0.80509
 1454  C   1.07965   0.93548   0.82472   0.98278
 1455  H   0.86721
 1456  C   1.05745   1.09505   1.13577   1.19625
 1457  H   0.82474
 1458  H   0.82207
 1459  H   0.84142
 1460  O   1.84760   1.47774   1.49373   1.78174
 1461  H   0.64866
 1462  C   1.07068   0.75361   0.82656   0.79800
 1463  O   1.88052   1.50749   1.88277   1.36462
 1464  N   1.53713   1.54998   1.12176   1.29442
 1465  H   0.65693
 1466  C   1.05412   1.16777   0.87312   1.13584
 1467  H   0.83026
 1468  H   0.83665
 1469  H   0.85126
 1470  H   0.82732
 1471  C   1.10847   0.72192   0.77568   0.90299
 1472  O   1.87917   1.50025   1.39717   1.89103
 1473  N   1.54806   1.50782   1.35865   1.13689
 1474  H   0.67057
 1475  C   1.07820   1.08310   1.04071   0.80189
 1476  H   0.80364
 1477  C   1.05904   1.13426   0.99968   1.10168
 1478  H   0.81860
 1479  H   0.82214
 1480  C   1.06602   0.97588   0.99260   1.00490
 1481  C   1.08223   0.99070   1.02515   1.00500
 1482  H   0.83752
 1483  C   1.07634   1.10499   1.04963   1.06605
 1484  H   0.82039
 1485  C   1.07247   0.88646   0.88223   0.88006
 1486  O   1.83870   1.35491   1.61288   1.73274
 1487  H   0.61922
 1488  C   1.07859   0.98869   1.09942   1.09647
 1489  H   0.82148
 1490  C   1.08811   1.07863   0.97918   0.96948
 1491  H   0.83521
 1492  C   1.08085   0.79998   0.76889   0.79199
 1493  O   1.88630   1.81389   1.69946   1.28036
 1494  N   1.53471   1.25588   1.50896   1.18458
 1495  H   0.67091
 1496  C   1.06144   0.92031   1.08953   1.16676
 1497  H   0.83444
 1498  H   0.82971
 1499  H   0.83849
 1500  H   0.82497
 1501  C   1.10799   0.78631   0.88383   0.71625
 1502  O   1.88013   1.43036   1.87071   1.50906
 1503  N   1.55065   1.37513   1.18536   1.44528
 1504  H   0.64434
 1505  C   1.07867   0.96574   0.86315   1.12894
 1506  H   0.81506
 1507  C   1.05975   0.97983   0.99673   1.07643
 1508  H   0.84636
 1509  C   1.05205   1.15826   1.06258   1.17604
 1510  H   0.84455
 1511  H   0.84462
 1512  H   0.84166
 1513  C   1.04780   1.00000   1.12970   1.08501
 1514  H   0.86674
 1515  H   0.85350
 1516  C   1.04902   1.11601   1.12964   1.14951
 1517  H   0.85868
 1518  H   0.85755
 1519  H   0.84105
 1520  C   1.07236   0.85959   0.73794   0.75021
 1521  O   1.87626   1.57614   1.55609   1.67373
 1522  N   1.54215   1.18496   1.41746   1.37454
 1523  H   0.66207
 1524  C   1.07135   0.87892   1.16322   1.10822
 1525  H   0.84319
 1526  H   0.83230
 1527  H   0.83423
 1528  H   0.82777
 1529  C   1.10754   0.84815   0.73309   0.82090
 1530  O   1.88534   1.81640   1.62619   1.36659
 1531  N   1.53781   1.25350   1.40321   1.30544
 1532  H   0.64779
 1533  C   1.05920   0.89180   1.04088   1.02446
 1534  H   0.81921
 1535  C   1.06066   1.03229   1.11460   1.11498
 1536  H   0.82486
 1537  H   0.84678
 1538  C   1.04444   0.99031   0.96322   1.05925
 1539  H   0.88142
 1540  C   1.05457   1.16304   1.06829   1.18114
 1541  H   0.83844
 1542  H   0.84804
 1543  H   0.85335
 1544  C   1.05242   1.12284   1.17111   1.10845
 1545  H   0.85870
 1546  H   0.84797
 1547  H   0.84019
 1548  C   1.07857   0.72938   0.86463   0.77493
 1549  O   1.88187   1.57572   1.45143   1.73529
 1550  N   1.54006   1.57300   1.21282   1.19355
 1551  H   0.66072
 1552  C   1.07184   1.01934   0.93485   0.96151
 1553  H   0.81177
 1554  C   1.05670   1.17070   1.07948   0.99178
 1555  H   0.82442
 1556  H   0.82602
 1557  C   1.05679   1.12992   1.08781   1.03603
 1558  H   0.85301
 1559  H   0.82427
 1560  C   1.06365   1.15827   0.94495   0.90208
 1561  H   0.81643
 1562  H   0.83550
 1563  N   1.52415   1.16149   1.42466   1.39820
 1564  H   0.63980
 1565  C   0.99139   0.79134   0.81234   0.81838
 1566  N   1.51718   1.11631   1.46811   1.48669
 1567  H   0.65566
 1568  H   0.63928
 1569  N   1.50867   1.25119   1.39999   1.41139
 1570  H   0.64205
 1571  H   0.64049
 1572  C   1.08178   0.87202   0.77082   0.74406
 1573  O   1.88732   1.60927   1.60023   1.52924
 1574  N   1.53967   1.17442   1.27138   1.51530
 1575  H   0.65677
 1576  C   1.07434   0.85670   1.08630   1.03825
 1577  H   0.82262
 1578  C   1.06147   1.16306   1.09968   0.98577
 1579  H   0.84154
 1580  H   0.84053
 1581  C   1.04761   1.08176   0.96035   0.94811
 1582  H   0.86983
 1583  C   1.05604   1.17229   1.16292   1.07632
 1584  H   0.85208
 1585  H   0.86270
 1586  H   0.84554
 1587  C   1.05672   1.15841   1.09099   1.15818
 1588  H   0.85263
 1589  H   0.86114
 1590  H   0.84279
 1591  C   1.08268   0.71495   0.76166   0.70254
 1592  O   1.88398   1.46779   1.86995   1.62375
 1593  O   1.88776   1.54634   1.59310   1.80210

 **********************
 *                    *
 * JOB ENDED NORMALLY *
 *                    *
 **********************



 TOTAL JOB TIME:            39.23 SECONDS

 == MOPAC DONE ==
