 *******************************************************************************
 **                                                                           **
 **                              MOPAC v23.2.2                                **
 **                                                                           **
 *******************************************************************************
 **          Digital Object Identifier (DOI): 10.5281/zenodo.6511958          **
 **    Visit the DOI location for information on how to cite this program.    **
 *******************************************************************************

                              PM7 CALCULATION RESULTS

 *******************************************************************************
 *  CALCULATION DONE: (MAX THREADS = 12)             Tue Jan 27 16:07:18 2026  *
 *  PM7        - The PM7 Hamiltonian to be used
 *  MOZYME     - USE LOCALIZED M.O.s IN SOLVING THE SCF EQUATIONS
 *
 *
 *
 *                 CHARGE ON SYSTEM = +2
 *
 *
 *
 *  EPS=78.4   - USE ANDREAS KLAMT'S COSMO IMPLICIT SOLVATION MODEL
 *  1SCF       - DO 1 SCF AND THEN STOP 
 *  T=         - A TIME OF 172800.0 SECONDS REQUESTED
 *  DUMP=N     - RESTART FILE WRITTEN EVERY 7200.0 SECONDS REQUESTED
 *******************************************************************************
PM7 1SCF MOZYME CHARGE=2 EPS=78.4


   ATOM   CHEMICAL          X               Y               Z
  NUMBER   SYMBOL      (ANGSTROMS)     (ANGSTROMS)     (ANGSTROMS)

     1       H         71.69100000  *  165.23700000  * -45.36000000  *
     2       C         70.72700000  *  165.64400000  * -45.02500000  *
     3       O         70.67100000  *  166.69300000  * -44.40000000  *
     4       N         69.64800000  *  164.94600000  * -45.35400000  *
     5       H         69.74300000  *  164.08600000  * -45.86500000  *
     6       C         68.31800000  *  165.37700000  * -44.95100000  *
     7       H         68.30400000  *  166.44500000  * -44.75000000  *
     8       C         67.27900000  *  165.08100000  * -46.05800000  *
     9       H         67.27200000  *  164.02200000  * -46.29800000  *
    10       C         65.89200000  *  165.46600000  * -45.59200000  *
    11       H         65.46400000  *  166.22900000  * -46.24500000  *
    12       H         65.23700000  *  164.60600000  * -45.62700000  *
    13       H         65.87600000  *  165.89500000  * -44.58400000  *
    14       C         67.63700000  *  165.85600000  * -47.31700000  *
    15       H         68.59400000  *  165.52900000  * -47.70800000  *
    16       H         66.87900000  *  165.66900000  * -48.07700000  *
    17       H         67.68800000  *  166.92100000  * -47.10100000  *
    18       C         67.91500000  *  164.66400000  * -43.65700000  *
    19       O         67.55300000  *  165.30600000  * -42.67600000  *
    20       N         67.98400000  *  163.33800000  * -43.65800000  *
    21       H         68.28400000  *  162.85200000  * -44.48600000  *
    22       C         67.62300000  *  162.54400000  * -42.48700000  *
    23       H         67.90600000  *  163.07600000  * -41.58100000  *
    24       C         66.12800000  *  162.23500000  * -42.45900000  *
    25       H         65.92600000  *  161.47400000  * -43.20900000  *
    26       H         65.88500000  *  161.80700000  * -41.48800000  *
    27       C         65.21300000  *  163.39800000  * -42.74000000  *
    28       H         65.33100000  *  164.15700000  * -41.96400000  *
    29       H         65.45900000  *  163.81400000  * -43.69700000  *
    30       C         63.76600000  *  162.97200000  * -42.82400000  *
    31       O         63.44700000  *  162.11400000  * -43.67900000  *
    32       O         62.94800000  *  163.49400000  * -42.03400000  *
    33       C         68.34700000  *  161.22200000  * -42.57700000  *
    34       O         68.73000000  *  160.78800000  * -43.66100000  *
    35       N         68.52400000  *  160.57500000  * -41.43500000  *
    36       H         68.03000000  *  160.89100000  * -40.60600000  *
    37       C         69.17300000  *  159.28200000  * -41.42100000  *
    38       H         69.95100000  *  159.22100000  * -42.17800000  *
    39       C         69.75600000  *  159.01000000  * -40.03200000  *
    40       H         70.21900000  *  159.94300000  * -39.71800000  *
    41       H         68.96300000  *  158.79100000  * -39.31600000  *
    42       C         70.79800000  *  157.89600000  * -39.98300000  *
    43       H         70.31100000  *  156.94100000  * -40.17400000  *
    44       H         71.53800000  *  158.07300000  * -40.76900000  *
    45       C         71.50100000  *  157.83200000  * -38.61800000  *
    46       H         70.74900000  *  157.59000000  * -37.86000000  *
    47       H         72.23100000  *  157.01800000  * -38.63800000  *
    48       C         72.18600000  *  159.16200000  * -38.26900000  *
    49       H         72.83200000  *  159.42500000  * -39.10900000  *
    50       H         71.41200000  *  159.93100000  * -38.15600000  *
    51       N         73.00000000  *  159.10500000  * -37.02500000  *
    52       H         73.70000000  *  158.37000000  * -37.07400000  *
    53       H         73.43800000  *  159.98800000  * -36.79300000  *
    54       H         72.39100000  *  158.85400000  * -36.25100000  *
    55       C         68.06200000  *  158.28700000  * -41.74800000  *
    56       O         67.16300000  *  158.08100000  * -40.94600000  *
    57       N         68.04900000  *  157.71400000  * -42.95600000  *
    58       H         68.85600000  *  157.85100000  * -43.54400000  *
    59       C         67.02300000  *  156.74000000  * -43.38900000  *
    60       H         66.05000000  *  157.23500000  * -43.38600000  *
    61       C         67.29500000  *  156.22800000  * -44.82500000  *
    62       H         68.36800000  *  156.09300000  * -44.94900000  *
    63       C         66.61100000  *  154.88500000  * -45.12400000  *
    64       H         65.54100000  *  154.95700000  * -44.92300000  *
    65       H         66.75700000  *  154.62100000  * -46.16300000  *
    66       H         67.04300000  *  154.07800000  * -44.53200000  *
    67       C         66.80500000  *  157.27800000  * -45.83600000  *
    68       H         65.71400000  *  157.28800000  * -45.85600000  *
    69       H         67.13600000  *  158.24800000  * -45.48000000  *
    70       C         67.33400000  *  157.07800000  * -47.26400000  *
    71       H         66.92000000  *  156.17700000  * -47.70900000  *
    72       H         67.04300000  *  157.92400000  * -47.88300000  *
    73       H         68.41800000  *  157.00900000  * -47.25700000  *
    74       C         66.91300000  *  155.57300000  * -42.40700000  *
    75       O         65.81600000  *  155.22500000  * -41.96600000  *
    76       N         68.04900000  *  154.94600000  * -42.10700000  *
    77       H         68.92200000  *  155.30000000  * -42.48100000  *
    78       C         68.07300000  *  153.67300000  * -41.40600000  *
    79       H         67.45300000  *  153.74700000  * -40.51000000  *
    80       H         67.65700000  *  152.89800000  * -42.05000000  *
    81       C         69.47300000  *  153.24800000  * -40.99700000  *
    82       O         70.47600000  *  153.57200000  * -41.63900000  *
    83       N         69.51600000  *  152.49000000  * -39.91100000  *
    84       H         68.64200000  *  152.26200000  * -39.45900000  *
    85       C         70.72400000  *  151.87600000  * -39.38200000  *
    86       H         71.56700000  *  152.54400000  * -39.56100000  *
    87       C         70.55800000  *  151.70100000  * -37.86400000  *
    88       H         69.70500000  *  151.05300000  * -37.66100000  *
    89       H         71.45900000  *  151.24000000  * -37.48100000  *
    90       C         70.37700000  *  153.04400000  * -37.13400000  *
    91       H         71.22500000  *  153.68900000  * -37.38100000  *
    92       H         69.47000000  *  153.53800000  * -37.49200000  *
    93       C         70.27400000  *  152.87600000  * -35.61000000  *
    94       O         69.40700000  *  152.11000000  * -35.13000000  *
    95       O         71.03100000  *  153.55200000  * -34.87400000  *
    96       C         70.97700000  *  150.55900000  * -40.14000000  *
    97       O         70.22400000  *  149.59200000  * -39.99600000  *
    98       N         71.95100000  *  150.56700000  * -41.05700000  *
    99       H         72.58100000  *  151.35900000  * -41.09500000  *
   100       C         72.04900000  *  149.59100000  * -42.14800000  *
   101       H         71.04300000  *  149.33800000  * -42.48500000  *
   102       H         72.56300000  *  150.07100000  * -42.98100000  *
   103       C         72.78400000  *  148.28400000  * -41.82500000  *
   104       O         73.15600000  *  147.99800000  * -40.68900000  *
   105       N         73.01900000  *  147.48200000  * -42.86800000  *
   106       H         72.66600000  *  147.75600000  * -43.77100000  *
   107       C         73.78800000  *  146.21800000  * -42.82000000  *
   108       H         73.51600000  *  145.67100000  * -41.91700000  *
   109       C         73.47100000  *  145.32600000  * -44.03200000  *
   110       H         74.19500000  *  144.51200000  * -44.09400000  *
   111       C         72.07800000  *  144.72300000  * -43.90800000  *
   112       H         71.32100000  *  145.50700000  * -43.89100000  *
   113       H         71.90100000  *  144.05600000  * -44.75200000  *
   114       H         72.03700000  *  144.13800000  * -42.99000000  *
   115       O         73.53700000  *  146.09600000  * -45.20700000  *
   116       H         73.09400000  *  145.59000000  * -45.92800000  *
   117       C         75.30000000  *  146.41100000  * -42.77900000  *
   118       O         75.96600000  *  145.60900000  * -42.13800000  *
   119       N         75.82800000  *  147.45900000  * -43.42700000  *
   120       H         75.19300000  *  148.00300000  * -43.98900000  *
   121       C         77.27100000  *  147.71500000  * -43.59700000  *
   122       H         77.83000000  *  147.11200000  * -42.88100000  *
   123       C         77.69700000  *  147.28600000  * -45.01600000  *
   124       H         77.23200000  *  147.95800000  * -45.73800000  *
   125       H         78.77800000  *  147.40000000  * -45.11400000  *
   126       C         77.35800000  *  145.85400000  * -45.37600000  *
   127       C         77.81300000  *  144.81100000  * -44.55100000  *
   128       H         78.40700000  *  145.02800000  * -43.67200000  *
   129       C         77.47300000  *  143.48400000  * -44.84800000  *
   130       H         77.80100000  *  142.69600000  * -44.19200000  *
   131       C         76.70700000  *  143.18400000  * -45.99300000  *
   132       O         76.44600000  *  141.88900000  * -46.30300000  *
   133       H         77.09800000  *  141.32200000  * -45.86100000  *
   134       C         76.24600000  *  144.22900000  * -46.82100000  *
   135       H         75.63800000  *  144.00800000  * -47.68200000  *
   136       C         76.57600000  *  145.56300000  * -46.51200000  *
   137       H         76.21800000  *  146.36300000  * -47.14500000  *
   138       C         77.68400000  *  149.17500000  * -43.33600000  *
   139       O         78.78000000  *  149.58400000  * -43.71300000  *
   140       N         76.81500000  *  149.97300000  * -42.71000000  *
   141       H         75.94500000  *  149.58200000  * -42.37900000  *
   142       C         77.03100000  *  151.39800000  * -42.45700000  *
   143       H         77.61500000  *  151.52400000  * -41.54700000  *
   144       H         77.59900000  *  151.82000000  * -43.27500000  *
   145       C         75.71600000  *  152.16600000  * -42.30400000  *
   146       O         74.67100000  *  151.55900000  * -42.05400000  *
   147       N         75.75500000  *  153.49500000  * -42.44900000  *
   148       H         76.58800000  *  153.89400000  * -42.85900000  *
   149       C         74.59200000  *  154.32600000  * -42.21200000  *
   150       H         73.82600000  *  153.78000000  * -41.65800000  *
   151       C         74.95900000  *  155.54800000  * -41.37000000  *
   152       H         75.70700000  *  156.13900000  * -41.89300000  *
   153       C         73.73100000  *  156.40900000  * -41.13300000  *
   154       H         72.94300000  *  155.80300000  * -40.68200000  *
   155       H         73.98600000  *  157.21200000  * -40.45000000  *
   156       H         73.36800000  *  156.84900000  * -42.06500000  *
   157       C         75.54500000  *  155.09600000  * -40.05300000  *
   158       H         76.46000000  *  154.52800000  * -40.19800000  *
   159       H         75.77700000  *  155.95300000  * -39.42300000  *
   160       H         74.80500000  *  154.48400000  * -39.53200000  *
   161       C         74.01900000  *  154.79200000  * -43.53700000  *
   162       O         74.76100000  *  155.18400000  * -44.43700000  *
   163       N         72.69800000  *  154.64400000  * -43.68100000  *
   164       H         72.16700000  *  154.29100000  * -42.89200000  *
   165       C         71.91900000  *  155.09500000  * -44.84200000  *
   166       H         72.58000000  *  155.15900000  * -45.70300000  *
   167       C         70.77700000  *  154.11200000  * -45.19000000  *
   168       H         69.95200000  *  154.25200000  * -44.49100000  *
   169       C         70.26300000  *  154.39000000  * -46.60800000  *
   170       H         71.04900000  *  154.19900000  * -47.33900000  *
   171       H         69.41100000  *  153.74500000  * -46.82400000  *
   172       H         69.94700000  *  155.42600000  * -46.70000000  *
   173       C         71.19500000  *  152.63800000  * -45.11300000  *
   174       H         72.08300000  *  152.47200000  * -45.71500000  *
   175       H         71.40000000  *  152.36100000  * -44.07800000  *
   176       H         70.38300000  *  152.00500000  * -45.47500000  *
   177       C         71.34400000  *  156.48000000  * -44.54800000  *
   178       O         70.60400000  *  156.62500000  * -43.57200000  *
   179       N         71.62500000  *  157.49000000  * -45.37400000  *
   180       H         72.23900000  *  157.32200000  * -46.16900000  *
   181       C         71.01800000  *  158.79600000  * -45.21900000  *
   182       H         70.37900000  *  158.84300000  * -44.33800000  *
   183       C         72.10000000  *  159.86100000  * -45.06900000  *
   184       H         72.79900000  *  159.78100000  * -45.90500000  *
   185       H         71.63400000  *  160.84400000  * -45.14300000  *
   186       C         72.87100000  *  159.84300000  * -43.76800000  *
   187       C         72.34700000  *  160.43100000  * -42.61900000  *
   188       H         71.37700000  *  160.90600000  * -42.66800000  *
   189       C         73.06400000  *  160.45200000  * -41.42500000  *
   190       H         72.63300000  *  160.94600000  * -40.56800000  *
   191       C         74.33000000  *  159.87400000  * -41.37100000  *
   192       O         75.04700000  *  159.90100000  * -40.18700000  *
   193       H         74.69700000  *  160.54100000  * -39.56800000  *
   194       C         74.87500000  *  159.27800000  * -42.50300000  *
   195       H         75.78500000  *  158.71900000  * -42.41900000  *
   196       C         74.14000000  *  159.26700000  * -43.69600000  *
   197       H         74.51800000  *  158.73300000  * -44.56500000  *
   198       C         70.16700000  *  159.17400000  * -46.42900000  *
   199       O         70.41800000  *  158.72400000  * -47.55600000  *
   200       N         69.03000000  *  159.83500000  * -46.21300000  *
   201       H         68.84300000  *  160.14300000  * -45.26500000  *
   202       C         68.29500000  *  160.51200000  * -47.28200000  *
   203       H         68.28600000  *  159.91000000  * -48.19300000  *
   204       C         66.85000000  *  160.83800000  * -46.85100000  *
   205       H         66.33100000  *  159.91900000  * -46.59300000  *
   206       H         66.86700000  *  161.47600000  * -45.96500000  *
   207       C         66.04200000  *  161.52700000  * -47.96300000  *
   208       H         66.51900000  *  162.46800000  * -48.23900000  *
   209       H         66.01300000  *  160.87600000  * -48.83800000  *
   210       C         64.60800000  *  161.81000000  * -47.48600000  *
   211       H         64.14500000  *  160.87700000  * -47.15900000  *
   212       H         64.64500000  *  162.49700000  * -46.64000000  *
   213       C         63.77100000  *  162.42300000  * -48.61700000  *
   214       H         64.30000000  *  163.29800000  * -49.00900000  *
   215       H         63.69000000  *  161.68700000  * -49.42400000  *
   216       N         62.41600000  *  162.82100000  * -48.15000000  *
   217       H         62.46700000  *  163.52300000  * -47.42500000  *
   218       H         61.86900000  *  163.21400000  * -48.90400000  *
   219       H         61.90400000  *  162.03400000  * -47.77800000  *
   220       C         69.10100000  *  161.76700000  * -47.51000000  *
   221       O         69.33100000  *  162.50100000  * -46.55200000  *
   222       N         69.55500000  *  162.00600000  * -48.72500000  *
   223       H         69.34400000  *  161.34200000  * -49.46700000  *
   224       C         70.34900000  *  163.18200000  * -49.01700000  *
   225       H         70.22500000  *  163.93500000  * -48.24000000  *
   226       C         71.81400000  *  162.79200000  * -49.07000000  *
   227       H         71.97800000  *  162.06700000  * -49.86400000  *
   228       H         72.42900000  *  163.67700000  * -49.23900000  *
   229       H         72.10500000  *  162.33200000  * -48.12600000  *
   230       C         69.94400000  *  163.83800000  * -50.32200000  *
   231       O         69.22100000  *  163.25100000  * -51.12800000  *
   232       N         70.40700000  *  165.06400000  * -50.52400000  *
   233       H         70.93200000  *  165.53000000  * -49.79600000  *
   234       C         70.10800000  *  165.77900000  * -51.74600000  *
   235       H         69.54100000  *  165.15900000  * -52.44400000  *
   236       H         69.52200000  *  166.69100000  * -51.53000000  *
   237       H         71.05900000  *  166.04700000  * -52.23900000  *
   238       H         68.08600000  *  164.80700000  * -56.55000000  *
   239       C         68.21200000  *  164.39600000  * -55.53600000  *
   240       O         69.28600000  *  164.50800000  * -54.94200000  *
   241       N         67.13500000  *  163.82300000  * -55.01100000  *
   242       H         66.34000000  *  163.66800000  * -55.61500000  *
   243       C         67.13600000  *  163.21200000  * -53.68800000  *
   244       H         67.86300000  *  163.70700000  * -53.05000000  *
   245       C         65.75500000  *  163.32300000  * -53.02900000  *
   246       H         64.97700000  *  163.06900000  * -53.75000000  *
   247       C         65.64800000  *  162.36600000  * -51.85200000  *
   248       H         66.47200000  *  162.51800000  * -51.15200000  *
   249       H         64.69700000  *  162.53800000  * -51.34700000  *
   250       H         65.65200000  *  161.33900000  * -52.20000000  *
   251       C         65.54000000  *  164.75000000  * -52.56600000  *
   252       H         65.62600000  *  165.42400000  * -53.41600000  *
   253       H         64.53500000  *  164.85100000  * -52.15900000  *
   254       H         66.28400000  *  165.00300000  * -51.81000000  *
   255       C         67.52600000  *  161.76000000  * -53.84700000  *
   256       O         66.97900000  *  161.02800000  * -54.68200000  *
   257       N         68.49600000  *  161.34900000  * -53.04800000  *
   258       H         68.91100000  *  161.99700000  * -52.39100000  *
   259       C         69.01100000  *  159.99200000  * -53.10200000  *
   260       H         68.34600000  *  159.34100000  * -53.67900000  *
   261       C         70.37400000  *  159.97400000  * -53.81600000  *
   262       H         70.77500000  *  158.96500000  * -53.87500000  *
   263       C         70.21400000  *  160.50700000  * -55.21300000  *
   264       H         69.95700000  *  161.56600000  * -55.19000000  *
   265       H         71.15100000  *  160.39100000  * -55.75600000  *
   266       H         69.44200000  *  159.95000000  * -55.73600000  *
   267       C         71.37900000  *  160.85000000  * -53.05700000  *
   268       H         71.56500000  *  160.44500000  * -52.06400000  *
   269       H         72.31500000  *  160.84900000  * -53.61300000  *
   270       H         71.03600000  *  161.88400000  * -52.98400000  *
   271       C         69.19200000  *  159.37200000  * -51.72900000  *
   272       O         69.02000000  *  160.03600000  * -50.68600000  *
   273       N         69.37900000  *  158.05900000  * -51.70200000  *
   274       H         69.45500000  *  157.56300000  * -52.58600000  *
   275       C         69.76500000  *  157.33400000  * -50.50900000  *
   276       H         69.49000000  *  157.90300000  * -49.62300000  *
   277       C         69.01600000  *  156.01300000  * -50.45200000  *
   278       H         69.25800000  *  155.42600000  * -51.33400000  *
   279       H         69.30400000  *  155.46100000  * -49.55600000  *
   280       H         67.94700000  *  156.21600000  * -50.42100000  *
   281       C         71.27900000  *  157.15300000  * -50.54500000  *
   282       O         71.81100000  *  156.48500000  * -51.43800000  *
   283       N         71.97000000  *  157.79100000  * -49.60300000  *
   284       H         71.44500000  *  158.28300000  * -48.88900000  *
   285       C         73.41300000  *  157.73400000  * -49.53500000  *
   286       H         73.80300000  *  157.43200000  * -50.50200000  *
   287       C         73.96100000  *  159.11400000  * -49.18200000  *
   288       H         73.49200000  *  159.84000000  * -49.85100000  *
   289       H         73.62800000  *  159.35800000  * -48.16900000  *
   290       C         75.47300000  *  159.31600000  * -49.26600000  *
   291       H         75.96900000  *  158.63700000  * -48.57100000  *
   292       C         75.94900000  *  159.02000000  * -50.68400000  *
   293       H         75.44100000  *  159.71800000  * -51.34800000  *
   294       H         77.02400000  *  159.18800000  * -50.76300000  *
   295       H         75.74700000  *  157.98700000  * -50.96800000  *
   296       C         75.80400000  *  160.74000000  * -48.87900000  *
   297       H         75.43700000  *  160.94600000  * -47.87600000  *
   298       H         76.88200000  *  160.87900000  * -48.92200000  *
   299       H         75.32000000  *  161.42900000  * -49.57600000  *
   300       C         73.82100000  *  156.71600000  * -48.48500000  *
   301       O         73.39600000  *  156.78100000  * -47.33400000  *
   302       N         74.63900000  *  155.74600000  * -48.88600000  *
   303       H         74.87800000  *  155.72500000  * -49.87500000  *
   304       C         75.13200000  *  154.63200000  * -48.06300000  *
   305       H         74.61100000  *  154.60400000  * -47.10500000  *
   306       C         74.86200000  *  153.32500000  * -48.84600000  *
   307       H         74.42500000  *  153.57400000  * -49.81400000  *
   308       H         75.79900000  *  152.80500000  * -49.05100000  *
   309       C         73.89600000  *  152.33400000  * -48.19200000  *
   310       H         73.03200000  *  152.86900000  * -47.79800000  *
   311       H         73.54000000  *  151.67500000  * -48.98300000  *
   312       C         74.56000000  *  151.49300000  * -47.08700000  *
   313       H         75.59600000  *  151.27000000  * -47.34900000  *
   314       H         74.57300000  *  152.07500000  * -46.16200000  *
   315       C         73.81000000  *  150.16900000  * -46.84900000  *
   316       H         74.19800000  *  149.71800000  * -45.93000000  *
   317       H         72.74900000  *  150.39200000  * -46.68200000  *
   318       N         73.97000000  *  149.21700000  * -47.98900000  *
   319       H         74.93900000  *  148.96200000  * -48.13700000  *
   320       H         73.45500000  *  148.33700000  * -47.84100000  *
   321       H         73.61000000  *  149.60100000  * -48.85400000  *
   322       C         76.62300000  *  154.84600000  * -47.79700000  *
   323       O         77.41600000  *  154.67800000  * -48.71500000  *
   324       N         77.01700000  *  155.22600000  * -46.58100000  *
   325       H         76.29800000  *  155.26800000  * -45.86500000  *
   326       C         78.42200000  *  155.28900000  * -46.15900000  *
   327       H         79.06600000  *  155.59300000  * -46.98900000  *
   328       C         78.56700000  *  156.26000000  * -44.97900000  *
   329       H         78.02700000  *  155.87500000  * -44.10900000  *
   330       H         79.62500000  *  156.33900000  * -44.73000000  *
   331       C         78.01500000  *  157.64300000  * -45.34000000  *
   332       H         78.45100000  *  157.95800000  * -46.27300000  *
   333       H         76.93600000  *  157.57500000  * -45.50000000  *
   334       C         78.25100000  *  158.72500000  * -44.27900000  *
   335       H         77.97800000  *  159.68000000  * -44.73200000  *
   336       H         77.56000000  *  158.53300000  * -43.46900000  *
   337       C         79.67700000  *  158.85000000  * -43.70900000  *
   338       H         80.38400000  *  158.36300000  * -44.39700000  *
   339       H         79.95000000  *  159.91100000  * -43.68600000  *
   340       N         79.78800000  *  158.26900000  * -42.33500000  *
   341       H         79.63700000  *  157.26100000  * -42.37000000  *
   342       H         80.69600000  *  158.42600000  * -41.93200000  *
   343       H         79.10400000  *  158.64600000  * -41.70100000  *
   344       C         78.82300000  *  153.89100000  * -45.72900000  *
   345       O         78.09100000  *  153.31500000  * -44.93700000  *
   346       N         79.90700000  *  153.32000000  * -46.24700000  *
   347       H         80.40500000  *  153.76400000  * -47.01000000  *
   348       C         80.34300000  *  152.02200000  * -45.76800000  *
   349       H         79.49500000  *  151.49800000  * -45.35900000  *
   350       C         80.94400000  *  151.18600000  * -46.89500000  *
   351       H         81.78600000  *  151.78200000  * -47.16900000  *
   352       C         81.42400000  *  149.85200000  * -46.34500000  *
   353       H         80.65600000  *  149.35200000  * -45.75200000  *
   354       H         81.67900000  *  149.19900000  * -47.17900000  *
   355       H         82.34500000  *  149.95700000  * -45.76100000  *
   356       C         79.89700000  *  150.97600000  * -47.99700000  *
   357       H         79.60200000  *  151.87000000  * -48.50000000  *
   358       H         80.28300000  *  150.30500000  * -48.75000000  *
   359       C         78.59100000  *  150.36100000  * -47.52600000  *
   360       H         78.17700000  *  150.90100000  * -46.69000000  *
   361       H         77.89400000  *  150.33700000  * -48.36300000  *
   362       H         78.77100000  *  149.33300000  * -47.20900000  *
   363       C         81.33300000  *  152.07100000  * -44.61400000  *
   364       O         82.16700000  *  152.98000000  * -44.51900000  *
   365       N         81.21100000  *  151.07100000  * -43.74300000  *
   366       H         80.50300000  *  150.36100000  * -43.92800000  *
   367       C         82.04400000  *  150.90200000  * -42.55200000  *
   368       H         81.47500000  *  151.18100000  * -41.66300000  *
   369       H         82.35800000  *  149.86100000  * -42.45900000  *
   370       H         82.94700000  *  151.51400000  * -42.62000000  *
   371       H         81.25700000  *  144.04600000  * -57.89900000  *
   372       C         80.50000000  *  144.84100000  * -57.88800000  *
   373       O         79.71500000  *  144.99000000  * -58.82400000  *
   374       N         80.49900000  *  145.60300000  * -56.79700000  *
   375       H         81.28000000  *  145.52500000  * -56.16600000  *
   376       C         79.57000000  *  146.70600000  * -56.61200000  *
   377       H         78.57500000  *  146.34400000  * -56.42300000  *
   378       C         80.00500000  *  147.61000000  * -55.44200000  *
   379       H         80.89800000  *  148.18000000  * -55.68500000  *
   380       C         78.90600000  *  148.60800000  * -55.12500000  *
   381       H         77.92000000  *  148.14100000  * -55.17600000  *
   382       H         79.04500000  *  148.98700000  * -54.11600000  *
   383       H         78.93800000  *  149.43600000  * -55.83300000  *
   384       C         80.32100000  *  146.76200000  * -54.20900000  *
   385       H         81.19200000  *  146.13400000  * -54.40600000  *
   386       H         80.59400000  *  147.42200000  * -53.38900000  *
   387       C         79.18400000  *  145.87900000  * -53.76500000  *
   388       H         78.77800000  *  145.31100000  * -54.59400000  *
   389       H         79.50900000  *  145.12200000  * -53.06500000  *
   390       H         78.38800000  *  146.48300000  * -53.33500000  *
   391       C         79.54300000  *  147.54500000  * -57.87900000  *
   392       O         78.48200000  *  147.77900000  * -58.45100000  *
   393       N         80.72300000  *  147.98900000  * -58.30900000  *
   394       H         81.55800000  *  147.70100000  * -57.81200000  *
   395       C         80.85900000  *  148.80400000  * -59.51100000  *
   396       H         80.33900000  *  149.74600000  * -59.38600000  *
   397       H         81.92800000  *  148.98500000  * -59.72900000  *
   398       H         80.37800000  *  148.32200000  * -60.38100000  *
   399       H         78.96400000  *  146.08700000  * -61.65600000  *
   400       C         77.87300000  *  146.08700000  * -61.51600000  *
   401       O         77.11500000  *  145.89500000  * -62.46400000  *
   402       N         77.44600000  *  146.31800000  * -60.28000000  *
   403       H         78.13400000  *  146.42500000  * -59.54900000  *
   404       C         76.02800000  *  146.35200000  * -59.94500000  *
   405       H         75.53300000  *  145.47600000  * -60.35900000  *
   406       C         75.84100000  *  146.37400000  * -58.43100000  *
   407       H         76.20500000  *  147.30400000  * -58.01800000  *
   408       H         74.76300000  *  146.35700000  * -58.24200000  *
   409       C         76.47200000  *  145.22200000  * -57.65900000  *
   410       H         77.55000000  *  145.23900000  * -57.74900000  *
   411       C         76.08000000  *  145.34100000  * -56.19200000  *
   412       H         74.99900000  *  145.23000000  * -56.07700000  *
   413       H         76.57300000  *  144.55300000  * -55.62900000  *
   414       H         76.38500000  *  146.30900000  * -55.80100000  *
   415       C         75.99600000  *  143.89000000  * -58.23600000  *
   416       H         76.41500000  *  143.73000000  * -59.22900000  *
   417       H         76.32800000  *  143.07800000  * -57.59100000  *
   418       H         74.90500000  *  143.87400000  * -58.30500000  *
   419       C         75.32200000  *  147.55900000  * -60.54800000  *
   420       O         74.09500000  *  147.56800000  * -60.66200000  *
   421       N         76.08400000  *  148.63100000  * -60.82900000  *
   422       H         77.08200000  *  148.53500000  * -60.67700000  *
   423       C         75.60100000  *  149.83300000  * -61.53400000  *
   424       H         74.83700000  *  150.33500000  * -60.94100000  *
   425       H         76.43800000  *  150.53300000  * -61.75900000  *
   426       H         75.13800000  *  149.54900000  * -62.49200000  *
   427       H         62.79000000  *  145.77200000  * -59.27600000  *
   428       C         63.71000000  *  145.72000000  * -58.67500000  *
   429       O         63.77900000  *  145.02200000  * -57.66400000  *
   430       N         64.72400000  *  146.45200000  * -59.11400000  *
   431       H         64.63800000  *  147.05100000  * -59.92700000  *
   432       C         65.97100000  *  146.53500000  * -58.38100000  *
   433       H         65.88400000  *  146.09200000  * -57.38600000  *
   434       C         67.11600000  *  145.87700000  * -59.11400000  *
   435       H         67.33600000  *  146.42600000  * -60.03000000  *
   436       C         68.35100000  *  145.87800000  * -58.21400000  *
   437       H         68.14700000  *  145.31400000  * -57.31800000  *
   438       H         69.21000000  *  145.44500000  * -58.72400000  *
   439       H         68.64100000  *  146.89000000  * -57.94500000  *
   440       C         66.72800000  *  144.44400000  * -59.47800000  *
   441       H         66.54900000  *  143.87300000  * -58.56400000  *
   442       H         65.81500000  *  144.42400000  * -60.06800000  *
   443       C         67.77400000  *  143.72700000  * -60.29600000  *
   444       H         68.68300000  *  143.57700000  * -59.72200000  *
   445       H         67.37700000  *  142.75300000  * -60.59800000  *
   446       H         68.02300000  *  144.31300000  * -61.18000000  *
   447       C         66.29500000  *  148.01000000  * -58.22000000  *
   448       O         66.21200000  *  148.78000000  * -59.18400000  *
   449       N         66.54600000  *  148.44100000  * -56.98100000  *
   450       H         66.61700000  *  147.76000000  * -56.22900000  *
   451       C         66.88400000  *  149.83900000  * -56.68600000  *
   452       H         66.07000000  *  150.48300000  * -57.02000000  *
   453       C         67.08400000  *  150.05300000  * -55.17900000  *
   454       H         67.87800000  *  149.39400000  * -54.82400000  *
   455       C         67.46500000  *  151.49800000  * -54.84600000  *
   456       H         66.64300000  *  152.17500000  * -55.08100000  *
   457       H         67.69500000  *  151.55500000  * -53.78500000  *
   458       H         68.34700000  *  151.80500000  * -55.40200000  *
   459       C         65.80300000  *  149.74400000  * -54.40100000  *
   460       H         65.52600000  *  148.69900000  * -54.51200000  *
   461       H         65.98200000  *  149.93600000  * -53.34700000  *
   462       H         64.98700000  *  150.37400000  * -54.75200000  *
   463       C         68.14700000  *  150.21300000  * -57.45500000  *
   464       O         69.17400000  *  149.54000000  * -57.33200000  *
   465       N         68.08000000  *  151.28300000  * -58.25100000  *
   466       H         67.22500000  *  151.80400000  * -58.24500000  *
   467       C         69.18900000  *  151.69800000  * -59.08000000  *
   468       H         69.52500000  *  150.81900000  * -59.63900000  *
   469       C         68.73700000  *  152.76800000  * -60.08300000  *
   470       H         67.83400000  *  152.41100000  * -60.57900000  *
   471       H         68.47700000  *  153.68100000  * -59.53700000  *
   472       C         69.79100000  *  153.06900000  * -61.13100000  *
   473       H         70.72100000  *  153.35000000  * -60.64200000  *
   474       H         69.97400000  *  152.16800000  * -61.71600000  *
   475       C         69.35100000  *  154.17900000  * -62.08100000  *
   476       H         68.50200000  *  153.81400000  * -62.66100000  *
   477       H         69.02300000  *  155.05600000  * -61.52200000  *
   478       C         70.49800000  *  154.55900000  * -63.02400000  *
   479       H         71.33900000  *  154.89000000  * -62.40800000  *
   480       H         70.81900000  *  153.66100000  * -63.56600000  *
   481       N         70.11800000  *  155.62600000  * -63.99700000  *
   482       H         69.74700000  *  156.41600000  * -63.48300000  *
   483       H         70.92600000  *  155.93300000  * -64.52500000  *
   484       H         69.41500000  *  155.27800000  * -64.63600000  *
   485       C         70.36000000  *  152.21400000  * -58.25300000  *
   486       O         70.19400000  *  153.07400000  * -57.38700000  *
   487       N         71.53700000  *  151.64500000  * -58.50700000  *
   488       H         71.59600000  *  150.90400000  * -59.18600000  *
   489       C         72.75000000  *  152.07400000  * -57.83600000  *
   490       H         72.53800000  *  152.52600000  * -56.87100000  *
   491       C         73.72700000  *  150.91100000  * -57.67000000  *
   492       H         73.31500000  *  150.22100000  * -56.93700000  *
   493       H         73.77900000  *  150.36900000  * -58.62000000  *
   494       C         75.16700000  *  151.27300000  * -57.28800000  *
   495       H         75.65500000  *  151.80300000  * -58.10000000  *
   496       C         75.18300000  *  152.16500000  * -56.05900000  *
   497       H         74.60800000  *  151.72100000  * -55.25200000  *
   498       H         76.21000000  *  152.29600000  * -55.73500000  *
   499       H         74.78900000  *  153.14000000  * -56.31200000  *
   500       C         75.93300000  *  149.99400000  * -57.01300000  *
   501       H         75.98300000  *  149.42100000  * -57.93300000  *
   502       H         76.94600000  *  150.24200000  * -56.71200000  *
   503       H         75.43500000  *  149.41000000  * -56.23200000  *
   504       C         73.31900000  *  153.11300000  * -58.79500000  *
   505       O         73.76900000  *  152.77900000  * -59.89700000  *
   506       N         73.26700000  *  154.36900000  * -58.37800000  *
   507       H         72.92600000  *  154.57000000  * -57.44900000  *
   508       C         73.73400000  *  155.46600000  * -59.19700000  *
   509       H         73.47500000  *  155.26500000  * -60.23600000  *
   510       C         73.02500000  *  156.74200000  * -58.76000000  *
   511       H         73.45000000  *  157.06300000  * -57.80900000  *
   512       H         73.23600000  *  157.53300000  * -59.48700000  *
   513       C         71.51300000  *  156.60300000  * -58.58700000  *
   514       H         71.27400000  *  155.80900000  * -57.88500000  *
   515       C         70.97400000  *  157.88000000  * -58.01900000  *
   516       H         71.37000000  *  158.74600000  * -58.56000000  *
   517       H         69.88800000  *  157.89100000  * -58.09300000  *
   518       H         71.22100000  *  157.96000000  * -56.96600000  *
   519       C         70.85100000  *  156.29000000  * -59.92300000  *
   520       H         71.28300000  *  155.39700000  * -60.34200000  *
   521       H         69.78900000  *  156.14400000  * -59.75100000  *
   522       H         71.00300000  *  157.12700000  * -60.60700000  *
   523       C         75.24500000  *  155.67800000  * -59.15800000  *
   524       O         75.83900000  *  156.04700000  * -60.17600000  *
   525       N         75.86200000  *  155.44600000  * -57.99600000  *
   526       H         75.29500000  *  155.17900000  * -57.20400000  *
   527       C         77.30800000  *  155.64700000  * -57.82900000  *
   528       H         77.80800000  *  155.40400000  * -58.76600000  *
   529       C         77.60000000  *  157.11700000  * -57.51900000  *
   530       H         76.91700000  *  157.54400000  * -56.80300000  *
   531       H         78.58200000  *  157.17000000  * -57.04800000  *
   532       C         77.65600000  *  157.97500000  * -58.75600000  *
   533       O         78.67800000  *  157.91700000  * -59.48300000  *
   534       O         76.67400000  *  158.70400000  * -59.00000000  *
   535       C         77.97900000  *  154.81700000  * -56.73400000  *
   536       O         77.37100000  *  154.52100000  * -55.70400000  *
   537       N         79.24700000  *  154.47700000  * -56.96600000  *
   538       H         79.69800000  *  154.82400000  * -57.79800000  *
   539       C         80.06100000  *  153.73800000  * -56.00300000  *
   540       H         79.55400000  *  153.69900000  * -55.05200000  *
   541       C         80.36600000  *  152.29800000  * -56.50400000  *
   542       H         79.42700000  *  151.75200000  * -56.56200000  *
   543       C         80.98100000  *  152.34300000  * -57.88400000  *
   544       H         82.06600000  *  152.43300000  * -57.82100000  *
   545       H         80.74600000  *  151.41400000  * -58.37900000  *
   546       H         80.59600000  *  153.14500000  * -58.51000000  *
   547       C         81.29900000  *  151.58800000  * -55.53900000  *
   548       H         80.81100000  *  151.54900000  * -54.57200000  *
   549       H         81.47300000  *  150.57200000  * -55.87800000  *
   550       H         82.25900000  *  152.09200000  * -55.44900000  *
   551       C         81.36500000  *  154.53600000  * -55.81000000  *
   552       O         82.27000000  *  154.48900000  * -56.64700000  *
   553       N         81.45200000  *  155.28200000  * -54.71000000  *
   554       H         80.67600000  *  155.30400000  * -54.06400000  *
   555       C         82.62100000  *  156.11100000  * -54.44300000  *
   556       H         83.20500000  *  156.21800000  * -55.35800000  *
   557       H         82.32200000  *  157.12800000  * -54.14500000  *
   558       H         83.29700000  *  155.73900000  * -53.65600000  *
   559       H         84.58000000  *  155.17100000  * -47.07300000  *
   560       C         84.22500000  *  154.98400000  * -48.09100000  *
   561       O         84.63900000  *  155.65900000  * -49.04200000  *
   562       N         83.35800000  *  153.99100000  * -48.22200000  *
   563       H         83.13600000  *  153.42800000  * -47.41700000  *
   564       C         82.77600000  *  153.65100000  * -49.50600000  *
   565       H         83.37000000  *  154.04700000  * -50.31700000  *
   566       C         82.71900000  *  152.14000000  * -49.66000000  *
   567       H         83.74000000  *  151.87500000  * -49.95700000  *
   568       H         82.64400000  *  151.54600000  * -48.78400000  *
   569       C         81.82600000  *  151.61900000  * -50.77900000  *
   570       H         80.79100000  *  151.88400000  * -50.58700000  *
   571       C         82.25800000  *  152.23100000  * -52.09200000  *
   572       H         83.31100000  *  152.49100000  * -52.08900000  *
   573       H         82.09300000  *  151.51300000  * -52.88400000  *
   574       H         81.65400000  *  153.10900000  * -52.31200000  *
   575       C         81.89900000  *  150.09400000  * -50.82200000  *
   576       H         81.91300000  *  149.66400000  * -49.82700000  *
   577       H         81.05200000  *  149.70600000  * -51.39100000  *
   578       H         82.82500000  *  149.80300000  * -51.32100000  *
   579       C         81.36700000  *  154.23200000  * -49.54800000  *
   580       O         80.51800000  *  153.85700000  * -48.74500000  *
   581       N         81.13100000  *  155.16100000  * -50.46700000  *
   582       H         81.84500000  *  155.34800000  * -51.16200000  *
   583       C         79.82200000  *  155.78100000  * -50.60800000  *
   584       H         79.27400000  *  155.67000000  * -49.68700000  *
   585       C         79.96700000  *  157.27800000  * -50.86800000  *
   586       H         80.42300000  *  157.50400000  * -51.79700000  *
   587       H         78.95400000  *  157.66400000  * -50.98900000  *
   588       C         80.57600000  *  158.04300000  * -49.72300000  *
   589       C         79.79300000  *  158.48000000  * -48.65600000  *
   590       H         78.73500000  *  158.25400000  * -48.66900000  *
   591       C         80.35600000  *  159.18600000  * -47.59400000  *
   592       H         79.75300000  *  159.56200000  * -46.79700000  *
   593       C         81.71600000  *  159.45200000  * -47.58700000  *
   594       O         82.27600000  *  160.12500000  * -46.52100000  *
   595       H         83.20600000  *  160.30800000  * -46.74500000  *
   596       C         82.51400000  *  159.02600000  * -48.63700000  *
   597       H         83.58200000  *  159.23300000  * -48.65000000  *
   598       C         81.94100000  *  158.32800000  * -49.69800000  *
   599       H         82.57400000  *  157.98100000  * -50.50200000  *
   600       C         79.04800000  *  155.15800000  * -51.76500000  *
   601       O         79.54400000  *  155.08000000  * -52.88800000  *
   602       N         77.86300000  *  154.62300000  * -51.49500000  *
   603       H         77.53600000  *  154.64600000  * -50.53500000  *
   604       C         76.98300000  *  154.05400000  * -52.51300000  *
   605       H         77.50700000  *  154.00400000  * -53.46100000  *
   606       C         76.55400000  *  152.62100000  * -52.15600000  *
   607       H         75.87500000  *  152.66100000  * -51.31300000  *
   608       H         76.00200000  *  152.21900000  * -53.00600000  *
   609       C         77.69300000  *  151.64900000  * -51.80600000  *
   610       H         78.20800000  *  151.99000000  * -50.90800000  *
   611       C         77.12700000  *  150.25600000  * -51.54000000  *
   612       H         76.62800000  *  149.87500000  * -52.43300000  *
   613       H         77.93400000  *  149.57500000  * -51.26500000  *
   614       H         76.41400000  *  150.29900000  * -50.71800000  *
   615       C         78.69700000  *  151.53600000  * -52.94500000  *
   616       H         79.21300000  *  152.48400000  * -53.07200000  *
   617       H         79.43700000  *  150.77600000  * -52.70300000  *
   618       H         78.18400000  *  151.27400000  * -53.87200000  *
   619       C         75.78700000  *  154.98500000  * -52.67300000  *
   620       O         75.10300000  *  155.26100000  * -51.68400000  *
   621       N         75.54700000  *  155.50800000  * -53.87800000  *
   622       H         76.14500000  *  155.25500000  * -54.66000000  *
   623       C         74.40900000  *  156.37500000  * -54.09400000  *
   624       H         73.97600000  *  156.70200000  * -53.15000000  *
   625       C         74.83400000  *  157.63700000  * -54.81800000  *
   626       H         75.25500000  *  157.34500000  * -55.76600000  *
   627       C         73.61400000  *  158.52200000  * -55.10900000  *
   628       H         73.11700000  *  158.76900000  * -54.17500000  *
   629       H         73.94100000  *  159.43100000  * -55.61500000  *
   630       H         72.91600000  *  158.00900000  * -55.76200000  *
   631       C         75.84000000  *  158.38200000  * -53.94900000  *
   632       H         75.28100000  *  158.78400000  * -53.13000000  *
   633       H         76.65600000  *  157.75800000  * -53.60500000  *
   634       H         76.26100000  *  159.20400000  * -54.52500000  *
   635       C         73.31400000  *  155.64400000  * -54.85300000  *
   636       O         73.49500000  *  155.22100000  * -55.99400000  *
   637       N         72.19600000  *  155.40500000  * -54.17200000  *
   638       H         72.12300000  *  155.76200000  * -53.22300000  *
   639       C         71.01800000  *  154.74100000  * -54.72300000  *
   640       H         71.27300000  *  154.28600000  * -55.67600000  *
   641       C         70.55700000  *  153.63500000  * -53.76900000  *
   642       H         70.40000000  *  154.06600000  * -52.78000000  *
   643       H         69.59300000  *  153.27100000  * -54.11700000  *
   644       C         71.49300000  *  152.44800000  * -53.64300000  *
   645       C         71.36000000  *  151.34900000  * -54.51400000  *
   646       H         70.61800000  *  151.36300000  * -55.29900000  *
   647       C         72.18100000  *  150.21800000  * -54.36100000  *
   648       H         72.06700000  *  149.37100000  * -55.02500000  *
   649       C         73.14700000  *  150.18400000  * -53.34100000  *
   650       H         73.78100000  *  149.31400000  * -53.22400000  *
   651       C         73.28700000  *  151.28200000  * -52.47400000  *
   652       H         74.02200000  *  151.24900000  * -51.68400000  *
   653       C         72.46600000  *  152.41500000  * -52.62500000  *
   654       H         72.57300000  *  153.25400000  * -51.95000000  *
   655       C         69.88600000  *  155.74600000  * -54.95900000  *
   656       O         69.73200000  *  156.70500000  * -54.20200000  *
   657       N         69.07200000  *  155.53400000  * -55.99600000  *
   658       H         69.23600000  *  154.71600000  * -56.57500000  *
   659       C         67.81200000  *  156.27800000  * -56.16500000  *
   660       H         68.05800000  *  157.32700000  * -56.33800000  *
   661       C         67.04300000  *  155.76700000  * -57.39600000  *
   662       H         66.18500000  *  156.42300000  * -57.54900000  *
   663       H         67.68900000  *  155.83500000  * -58.27100000  *
   664       C         66.54500000  *  154.31900000  * -57.25000000  *
   665       H         67.40600000  *  153.66500000  * -57.10400000  *
   666       H         65.91100000  *  154.24100000  * -56.37100000  *
   667       C         65.71600000  *  153.81500000  * -58.43400000  *
   668       O         65.24300000  *  154.62100000  * -59.26700000  *
   669       O         65.49600000  *  152.58400000  * -58.49100000  *
   670       C         66.94800000  *  156.19900000  * -54.88900000  *
   671       O         66.85000000  *  155.13800000  * -54.27200000  *
   672       N         66.32800000  *  157.29800000  * -54.45600000  *
   673       H         66.39100000  *  158.15400000  * -54.99000000  *
   674       C         65.46500000  *  157.27900000  * -53.27100000  *
   675       H         65.93200000  *  156.64900000  * -52.51100000  *
   676       C         65.36500000  *  158.68900000  * -52.68500000  *
   677       H         66.36800000  *  159.03700000  * -52.44400000  *
   678       H         64.94900000  *  159.35700000  * -53.44100000  *
   679       C         64.52400000  *  158.78000000  * -51.42600000  *
   680       C         63.23000000  *  159.33100000  * -51.47600000  *
   681       H         62.82800000  *  159.69000000  * -52.41400000  *
   682       C         62.45400000  *  159.41700000  * -50.30800000  *
   683       H         61.46000000  *  159.84100000  * -50.35200000  *
   684       C         62.96700000  *  158.95000000  * -49.08600000  *
   685       H         62.36800000  *  159.01500000  * -48.18700000  *
   686       C         64.26000000  *  158.40100000  * -49.03200000  *
   687       H         64.65400000  *  158.04600000  * -48.09000000  *
   688       C         65.03800000  *  158.31500000  * -50.20000000  *
   689       H         66.03200000  *  157.89200000  * -50.15600000  *
   690       C         64.07600000  *  156.69300000  * -53.57500000  *
   691       O         63.42700000  *  157.08800000  * -54.54800000  *
   692       N         63.60000000  *  155.79800000  * -52.70500000  *
   693       H         64.20700000  *  155.51100000  * -51.94600000  *
   694       C         62.19800000  *  155.36800000  * -52.62000000  *
   695       H         61.59500000  *  155.93000000  * -53.33600000  *
   696       C         62.05300000  *  153.86700000  * -52.93000000  *
   697       H         62.79900000  *  153.31100000  * -52.36800000  *
   698       H         61.07100000  *  153.55900000  * -52.56800000  *
   699       C         62.14300000  *  153.50600000  * -54.42500000  *
   700       H         61.70400000  *  154.30700000  * -55.01900000  *
   701       C         63.58400000  *  153.26800000  * -54.88100000  *
   702       H         64.03900000  *  152.47700000  * -54.29000000  *
   703       H         63.60000000  *  152.99600000  * -55.93500000  *
   704       H         64.16700000  *  154.17800000  * -54.75900000  *
   705       C         61.35700000  *  152.22300000  * -54.70900000  *
   706       H         60.32100000  *  152.34500000  * -54.39500000  *
   707       H         61.36500000  *  152.01500000  * -55.77800000  *
   708       H         61.79500000  *  151.38100000  * -54.17400000  *
   709       C         61.65800000  *  155.69400000  * -51.22100000  *
   710       O         62.39800000  *  155.66500000  * -50.24000000  *
   711       N         60.38100000  *  156.05800000  * -51.13100000  *
   712       H         59.83900000  *  156.09200000  * -51.98600000  *
   713       C         59.81600000  *  156.75200000  * -49.96700000  *
   714       H         60.53500000  *  157.50700000  * -49.64600000  *
   715       C         58.54900000  *  157.49600000  * -50.41200000  *
   716       H         57.77100000  *  156.76500000  * -50.63400000  *
   717       H         58.20800000  *  158.12000000  * -49.58600000  *
   718       C         58.73200000  *  158.37300000  * -51.63000000  *
   719       N         58.80300000  *  157.92200000  * -52.95300000  *
   720       C         58.98600000  *  159.02000000  * -53.70800000  *
   721       H         59.08300000  *  159.02400000  * -54.78800000  *
   722       N         59.03300000  *  160.11700000  * -52.93300000  *
   723       H         59.16000000  *  161.06600000  * -53.27200000  *
   724       C         58.87500000  *  159.73000000  * -51.62000000  *
   725       H         58.86500000  *  160.37000000  * -50.74600000  *
   726       C         59.54400000  *  155.88100000  * -48.72600000  *
   727       O         59.40400000  *  156.43100000  * -47.63300000  *
   728       N         59.46800000  *  154.55000000  * -48.86000000  *
   729       H         59.60700000  *  154.15300000  * -49.78000000  *
   730       C         59.09500000  *  153.62700000  * -47.77500000  *
   731       H         59.55000000  *  153.97600000  * -46.84800000  *
   732       C         57.56100000  *  153.66600000  * -47.59800000  *
   733       H         57.27600000  *  154.68300000  * -47.32300000  *
   734       H         57.07600000  *  153.42400000  * -48.54500000  *
   735       C         57.04200000  *  152.70800000  * -46.51500000  *
   736       H         56.92400000  *  151.71500000  * -46.94500000  *
   737       H         57.76900000  *  152.65000000  * -45.70600000  *
   738       C         55.72000000  *  153.16100000  * -45.90700000  *
   739       O         55.67100000  *  153.87800000  * -44.92100000  *
   740       N         54.59300000  *  152.76400000  * -46.46000000  *
   741       H         53.74000000  *  153.08600000  * -46.03000000  *
   742       H         54.60300000  *  152.20100000  * -47.29200000  *
   743       C         59.61000000  *  152.19500000  * -48.02000000  *
   744       O         59.69100000  *  151.75000000  * -49.16700000  *
   745       N         59.93800000  *  151.46300000  * -46.94900000  *
   746       H         59.83600000  *  151.88600000  * -46.02700000  *
   747       C         60.26800000  *  150.02900000  * -47.01900000  *
   748       H         60.55900000  *  149.80600000  * -48.04200000  *
   749       C         61.49900000  *  149.69900000  * -46.15700000  *
   750       H         61.81800000  *  148.68900000  * -46.41700000  *
   751       H         62.30900000  *  150.37400000  * -46.43700000  *
   752       C         61.28500000  *  149.75400000  * -44.63900000  *
   753       O         60.31700000  *  149.14100000  * -44.14200000  *
   754       O         62.13800000  *  150.35900000  * -43.94900000  *
   755       C         59.06800000  *  149.11000000  * -46.71000000  *
   756       O         58.03400000  *  149.54100000  * -46.18300000  *
   757       N         59.19100000  *  147.81900000  * -47.04800000  *
   758       H         60.03800000  *  147.50900000  * -47.52500000  *
   759       C         58.10100000  *  146.88000000  * -46.84100000  *
   760       H         57.21800000  *  147.32500000  * -47.29300000  *
   761       C         58.41200000  *  145.57700000  * -47.59200000  *
   762       H         58.61300000  *  145.80400000  * -48.64400000  *
   763       H         59.28800000  *  145.12100000  * -47.15800000  *
   764       C         57.28700000  *  144.52700000  * -47.51900000  *
   765       H         57.05600000  *  144.28000000  * -46.48700000  *
   766       C         56.00700000  *  145.04400000  * -48.19600000  *
   767       H         56.23500000  *  145.37800000  * -49.20200000  *
   768       H         55.26800000  *  144.24500000  * -48.23100000  *
   769       H         55.59500000  *  145.87000000  * -47.62900000  *
   770       C         57.76800000  *  143.24900000  * -48.17500000  *
   771       H         58.61500000  *  142.85400000  * -47.62000000  *
   772       H         56.97300000  *  142.50400000  * -48.17100000  *
   773       H         58.06400000  *  143.44500000  * -49.20700000  *
   774       C         57.76400000  *  146.61300000  * -45.36900000  *
   775       O         56.60900000  *  146.37600000  * -45.03000000  *
   776       N         58.75700000  *  146.67700000  * -44.48800000  *
   777       H         59.64000000  *  147.08600000  * -44.79000000  *
   778       C         58.49100000  *  146.46700000  * -43.07300000  *
   779       H         57.97900000  *  145.55100000  * -42.87200000  *
   780       C         59.78200000  *  146.47800000  * -42.25400000  *
   781       H         60.44800000  *  145.70000000  * -42.62000000  *
   782       H         60.28600000  *  147.44000000  * -42.35600000  *
   783       C         59.49200000  *  146.22900000  * -40.76500000  *
   784       H         58.94200000  *  147.08300000  * -40.37400000  *
   785       H         58.87100000  *  145.33200000  * -40.67600000  *
   786       C         60.74500000  *  146.03800000  * -39.93500000  *
   787       H         61.36100000  *  145.25900000  * -40.37900000  *
   788       H         61.30800000  *  146.97100000  * -39.90700000  *
   789       C         60.37600000  *  145.60700000  * -38.51700000  *
   790       H         59.98500000  *  144.58900000  * -38.53700000  *
   791       H         61.27900000  *  145.61300000  * -37.90300000  *
   792       N         59.34600000  *  146.53100000  * -37.94700000  *
   793       H         58.44600000  *  146.48100000  * -38.44300000  *
   794       H         59.09000000  *  146.27800000  * -37.00400000  *
   795       H         59.61300000  *  147.50600000  * -37.97800000  *
   796       C         57.55800000  *  147.53800000  * -42.51200000  *
   797       O         56.61300000  *  147.23400000  * -41.78300000  *
   798       N         57.83800000  *  148.81500000  * -42.79900000  *
   799       H         58.66600000  *  149.01100000  * -43.36600000  *
   800       C         56.99900000  *  149.92600000  * -42.32500000  *
   801       H         56.88600000  *  149.83500000  * -41.24300000  *
   802       C         57.66400000  *  151.27900000  * -42.62100000  *
   803       H         58.66100000  *  151.28500000  * -42.17900000  *
   804       H         57.75900000  *  151.41400000  * -43.70000000  *
   805       C         56.84100000  *  152.43200000  * -42.02000000  *
   806       H         55.87900000  *  152.49000000  * -42.53000000  *
   807       H         56.66000000  *  152.22800000  * -40.96300000  *
   808       C         57.54700000  *  153.78700000  * -42.14300000  *
   809       H         58.47200000  *  153.76200000  * -41.56400000  *
   810       H         57.77900000  *  153.98100000  * -43.19200000  *
   811       C         56.62500000  *  154.88900000  * -41.60300000  *
   812       H         55.71000000  *  154.90200000  * -42.20400000  *
   813       H         56.34600000  *  154.63800000  * -40.57600000  *
   814       N         57.27300000  *  156.22500000  * -41.63500000  *
   815       H         57.51700000  *  156.49500000  * -42.57700000  *
   816       H         56.65400000  *  156.93400000  * -41.26700000  *
   817       H         58.11300000  *  156.23900000  * -41.07600000  *
   818       C         55.59800000  *  149.82000000  * -42.92000000  *
   819       O         54.61600000  *  150.04600000  * -42.21900000  *
   820       N         55.49500000  *  149.42600000  * -44.18900000  *
   821       H         56.35000000  *  149.26300000  * -44.71300000  *
   822       C         54.20500000  *  149.26000000  * -44.85200000  *
   823       H         53.62600000  *  150.17500000  * -44.72500000  *
   824       C         54.41000000  *  148.98800000  * -46.34000000  *
   825       H         54.98900000  *  149.80200000  * -46.77700000  *
   826       H         55.00200000  *  148.07700000  * -46.45200000  *
   827       C         53.12600000  *  148.85300000  * -47.10800000  *
   828       C         52.23100000  *  149.92200000  * -47.18600000  *
   829       H         52.46300000  *  150.85600000  * -46.69900000  *
   830       C         51.01500000  *  149.79500000  * -47.88400000  *
   831       H         50.32500000  *  150.62800000  * -47.91800000  *
   832       C         50.69700000  *  148.60300000  * -48.50200000  *
   833       H         49.75200000  *  148.50200000  * -49.02000000  *
   834       C         51.58700000  *  147.52100000  * -48.43200000  *
   835       H         51.33500000  *  146.58300000  * -48.91200000  *
   836       C         52.79500000  *  147.65400000  * -47.73300000  *
   837       H         53.46700000  *  146.81000000  * -47.67200000  *
   838       C         53.37400000  *  148.12200000  * -44.22700000  *
   839       O         52.16900000  *  148.28300000  * -44.00900000  *
   840       N         54.01600000  *  146.98100000  * -43.96600000  *
   841       H         55.00900000  *  146.90600000  * -44.17900000  *
   842       C         53.33800000  *  145.83600000  * -43.34100000  *
   843       H         52.47600000  *  145.52800000  * -43.93400000  *
   844       C         54.29200000  *  144.65000000  * -43.17000000  *
   845       H         55.15800000  *  145.02700000  * -42.63600000  *
   846       H         53.80700000  *  143.89200000  * -42.54700000  *
   847       C         54.73100000  *  144.00400000  * -44.46100000  *
   848       H         53.84700000  *  143.61400000  * -44.95900000  *
   849       H         55.19200000  *  144.69400000  * -45.15000000  *
   850       S         55.79700000  *  142.58100000  * -44.15400000  *
   851       C         57.05400000  *  143.29200000  * -43.18800000  *
   852       H         56.67800000  *  143.65800000  * -42.23500000  *
   853       H         57.80700000  *  142.53400000  * -42.98200000  *
   854       H         57.44300000  *  144.07900000  * -43.80900000  *
   855       C         52.84400000  *  146.26000000  * -41.95900000  *
   856       O         51.68200000  *  146.03200000  * -41.61400000  *
   857       N         53.72600000  *  146.88400000  * -41.17900000  *
   858       H         54.70100000  *  146.95700000  * -41.45300000  *
   859       C         53.34300000  *  147.35100000  * -39.84600000  *
   860       H         53.03400000  *  146.49700000  * -39.23800000  *
   861       C         54.50500000  *  148.07700000  * -39.15700000  *
   862       H         54.94100000  *  148.81500000  * -39.83000000  *
   863       H         54.12400000  *  148.60600000  * -38.28400000  *
   864       C         55.58400000  *  147.11500000  * -38.68500000  *
   865       O         55.26200000  *  145.90900000  * -38.57600000  *
   866       O         56.73300000  *  147.55200000  * -38.41700000  *
   867       C         52.15000000  *  148.27900000  * -39.96300000  *
   868       O         51.20300000  *  148.18000000  * -39.18700000  *
   869       N         52.18300000  *  149.16200000  * -40.95500000  *
   870       H         53.01600000  *  149.23700000  * -41.51800000  *
   871       C         51.08600000  *  150.10000000  * -41.17300000  *
   872       H         50.93100000  *  150.67400000  * -40.25800000  *
   873       C         51.42800000  *  151.06800000  * -42.31500000  *
   874       H         51.45500000  *  150.53900000  * -43.26600000  *
   875       H         50.66000000  *  151.83800000  * -42.36800000  *
   876       H         52.39300000  *  151.53600000  * -42.12800000  *
   877       C         49.78900000  *  149.37000000  * -41.49900000  *
   878       O         48.71100000  *  149.83600000  * -41.15600000  *
   879       N         49.90500000  *  148.22900000  * -42.16400000  *
   880       H         50.83800000  *  147.88500000  * -42.38200000  *
   881       C         48.74000000  *  147.45400000  * -42.57500000  *
   882       H         47.85700000  *  148.08600000  * -42.62800000  *
   883       H         48.90600000  *  147.02300000  * -43.58600000  *
   884       H         48.52600000  *  146.61900000  * -41.88800000  *
   885       H         72.54500000  *  137.05800000  * -55.15200000  *
   886       C         72.38600000  *  137.90500000  * -54.47400000  *
   887       O         73.28300000  *  138.71900000  * -54.28600000  *
   888       N         71.20100000  *  138.01500000  * -53.89800000  *
   889       H         70.47300000  *  137.31400000  * -54.05700000  *
   890       C         70.96800000  *  139.10000000  * -52.94900000  *
   891       H         71.50000000  *  140.00600000  * -53.22900000  *
   892       C         69.47700000  *  139.40500000  * -52.82500000  *
   893       H         69.09300000  *  139.71900000  * -53.79200000  *
   894       H         68.93000000  *  138.50600000  * -52.53300000  *
   895       C         69.17800000  *  140.45400000  * -51.81200000  *
   896       N         69.23000000  *  140.42300000  * -50.45900000  *
   897       C         68.94700000  *  141.69100000  * -50.01400000  *
   898       H         68.96900000  *  142.01200000  * -48.98400000  *
   899       N         68.72400000  *  142.47200000  * -51.05500000  *
   900       H         68.47200000  *  143.44500000  * -51.00700000  *
   901       C         68.85400000  *  141.75000000  * -52.15500000  *
   902       H         68.77100000  *  142.12600000  * -53.16500000  *
   903       C         71.52100000  *  138.65700000  * -51.58300000  *
   904       O         72.28000000  *  139.38000000  * -50.94700000  *
   905       N         71.11400000  *  137.47100000  * -51.14500000  *
   906       H         70.37100000  *  137.01600000  * -51.66500000  *
   907       C         71.55500000  *  136.88000000  * -49.87700000  *
   908       H         71.18200000  *  135.84900000  * -49.87900000  *
   909       C         73.07600000  *  136.85300000  * -49.83700000  *
   910       H         73.53100000  *  137.83300000  * -49.86900000  *
   911       H         73.36600000  *  136.47900000  * -48.85100000  *
   912       C         73.64700000  *  135.85900000  * -50.81700000  *
   913       H         73.29800000  *  134.87100000  * -50.67200000  *
   914       H         73.21600000  *  136.10500000  * -51.78700000  *
   915       C         75.11700000  *  136.08400000  * -50.99900000  *
   916       H         75.61200000  *  135.95400000  * -50.03300000  *
   917       H         75.49500000  *  135.33200000  * -51.69500000  *
   918       N         75.35800000  *  137.42700000  * -51.50600000  *
   919       H         74.62100000  *  138.12700000  * -51.38200000  *
   920       C         76.54800000  *  137.85900000  * -51.89000000  *
   921       N         77.59300000  *  137.04400000  * -51.81500000  *
   922       H         77.44700000  *  136.21200000  * -51.26800000  *
   923       H         78.49900000  *  137.44300000  * -51.92100000  *
   924       N         76.69000000  *  139.09300000  * -52.35600000  *
   925       H         75.86000000  *  139.69200000  * -52.33800000  *
   926       H         77.56200000  *  139.47800000  * -52.67100000  *
   927       C         71.03700000  *  137.42400000  * -48.54200000  *
   928       O         71.18700000  *  136.76800000  * -47.50900000  *
   929       N         70.43700000  *  138.60400000  * -48.51600000  *
   930       H         70.32800000  *  139.16900000  * -49.34700000  *
   931       C         69.93700000  *  139.07600000  * -47.23100000  *
   932       H         69.76500000  *  138.24900000  * -46.54100000  *
   933       C         70.93500000  *  140.04200000  * -46.56200000  *
   934       H         71.90900000  *  139.56600000  * -46.50900000  *
   935       H         71.04400000  *  140.94300000  * -47.17900000  *
   936       C         70.51300000  *  140.42800000  * -45.14700000  *
   937       O         70.17200000  *  139.51500000  * -44.35500000  *
   938       O         70.51000000  *  141.64400000  * -44.82500000  *
   939       C         68.58700000  *  139.73400000  * -47.37800000  *
   940       O         68.35000000  *  140.81000000  * -46.83500000  *
   941       N         67.68700000  *  139.08300000  * -48.11000000  *
   942       H         67.94300000  *  138.20800000  * -48.54500000  *
   943       C         66.35900000  *  139.64900000  * -48.29900000  *
   944       H         66.47700000  *  140.66700000  * -48.65900000  *
   945       C         65.54600000  *  138.81300000  * -49.28800000  *
   946       H         65.58300000  *  137.78400000  * -48.94500000  *
   947       H         64.50600000  *  139.14000000  * -49.25500000  *
   948       C         66.02700000  *  138.85500000  * -50.73600000  *
   949       H         67.06400000  *  138.52800000  * -50.78200000  *
   950       C         65.17300000  *  137.91700000  * -51.58300000  *
   951       H         64.15900000  *  138.30500000  * -51.68800000  *
   952       H         65.63400000  *  137.80700000  * -52.55000000  *
   953       H         65.13400000  *  136.93500000  * -51.11000000  *
   954       C         65.92100000  *  140.27700000  * -51.26400000  *
   955       H         66.42000000  *  140.99600000  * -50.63300000  *
   956       H         66.44200000  *  140.27500000  * -52.20900000  *
   957       H         64.88200000  *  140.56100000  * -51.39700000  *
   958       C         65.59400000  *  139.73400000  * -46.98200000  *
   959       O         65.58600000  *  138.79200000  * -46.16600000  *
   960       N         64.95400000  *  140.85400000  * -46.74600000  *
   961       H         64.96300000  *  141.58600000  * -47.44400000  *
   962       C         64.16100000  *  141.05700000  * -45.54900000  *
   963       H         63.54500000  *  140.16800000  * -45.41900000  *
   964       C         65.03200000  *  141.20800000  * -44.28400000  *
   965       H         64.39200000  *  141.27800000  * -43.40400000  *
   966       H         65.61800000  *  140.29700000  * -44.16400000  *
   967       C         65.98300000  *  142.41100000  * -44.28000000  *
   968       H         66.40600000  *  142.55300000  * -45.27200000  *
   969       H         65.43800000  *  143.30700000  * -43.98800000  *
   970       C         67.12400000  *  142.13100000  * -43.29600000  *
   971       H         66.71100000  *  141.85700000  * -42.32200000  *
   972       H         67.69800000  *  141.28500000  * -43.68200000  *
   973       C         68.04300000  *  143.34300000  * -43.12900000  *
   974       H         68.15600000  *  143.84200000  * -44.09700000  *
   975       H         67.56500000  *  144.05000000  * -42.44100000  *
   976       N         69.37000000  *  142.91400000  * -42.61500000  *
   977       H         69.86600000  *  142.36400000  * -43.33100000  *
   978       H         69.93700000  *  143.71200000  * -42.35700000  *
   979       H         69.26500000  *  142.33600000  * -41.79100000  *
   980       C         63.26600000  *  142.23000000  * -45.83600000  *
   981       O         63.63100000  *  143.07600000  * -46.65100000  *
   982       N         62.11200000  *  142.30300000  * -45.18600000  *
   983       C         61.62600000  *  141.34600000  * -44.17100000  *
   984       H         62.10000000  *  141.53200000  * -43.20900000  *
   985       H         61.74500000  *  140.31100000  * -44.47600000  *
   986       C         60.16400000  *  141.66900000  * -44.09500000  *
   987       H         59.73700000  *  141.34900000  * -43.14300000  *
   988       H         59.63700000  *  141.20600000  * -44.93200000  *
   989       C         60.16000000  *  143.18900000  * -44.24800000  *
   990       H         60.51600000  *  143.64900000  * -43.32100000  *
   991       H         59.20200000  *  143.56500000  * -44.57400000  *
   992       C         61.14500000  *  143.38000000  * -45.40300000  *
   993       H         60.63400000  *  143.20500000  * -46.34500000  *
   994       C         61.77100000  *  144.77100000  * -45.44800000  *
   995       O         61.39200000  *  145.58400000  * -46.27300000  *
   996       N         62.71300000  *  145.08600000  * -44.54300000  *
   997       H         62.94600000  *  144.39700000  * -43.84300000  *
   998       C         63.43700000  *  146.37600000  * -44.52000000  *
   999       H         62.71200000  *  147.18300000  * -44.39600000  *
  1000       C         64.42700000  *  146.42600000  * -43.34300000  *
  1001       H         65.10200000  *  145.57200000  * -43.40600000  *
  1002       H         65.02800000  *  147.33200000  * -43.44000000  *
  1003       C         63.76500000  *  146.45800000  * -41.95800000  *
  1004       H         63.07700000  *  147.30300000  * -41.91700000  *
  1005       H         63.20100000  *  145.54100000  * -41.79700000  *
  1006       C         64.79700000  *  146.58900000  * -40.83500000  *
  1007       O         65.85200000  *  145.96800000  * -40.84500000  *
  1008       N         64.54000000  *  147.38700000  * -39.82200000  *
  1009       H         65.23000000  *  147.46400000  * -39.08900000  *
  1010       H         63.69700000  *  147.93900000  * -39.79600000  *
  1011       C         64.22400000  *  146.67000000  * -45.81100000  *
  1012       O         64.34300000  *  147.82200000  * -46.21500000  *
  1013       N         64.75300000  *  145.63300000  * -46.46400000  *
  1014       H         64.51300000  *  144.70800000  * -46.13700000  *
  1015       C         65.53200000  *  145.70200000  * -47.70200000  *
  1016       H         66.09300000  *  146.63900000  * -47.72700000  *
  1017       C         66.54900000  *  144.53000000  * -47.72700000  *
  1018       H         66.04600000  *  143.60000000  * -47.47600000  *
  1019       H         66.93600000  *  144.41600000  * -48.73700000  *
  1020       C         67.76500000  *  144.70700000  * -46.82700000  *
  1021       O         68.05100000  *  145.77600000  * -46.31200000  *
  1022       N         68.53400000  *  143.66500000  * -46.59700000  *
  1023       H         69.40700000  *  143.81200000  * -46.11600000  *
  1024       H         68.29300000  *  142.72200000  * -46.88500000  *
  1025       C         64.63400000  *  145.71100000  * -48.96000000  *
  1026       O         65.16200000  *  145.62300000  * -50.06600000  *
  1027       N         63.30000000  *  145.80300000  * -48.83400000  *
  1028       H         62.89500000  *  145.87300000  * -47.90900000  *
  1029       C         62.40600000  *  145.84500000  * -49.97900000  *
  1030       H         62.94700000  *  145.74800000  * -50.91900000  *
  1031       C         61.36900000  *  144.72100000  * -49.88900000  *
  1032       H         60.76900000  *  144.86100000  * -48.99200000  *
  1033       H         60.74400000  *  144.79800000  * -50.77200000  *
  1034       C         62.03600000  *  143.32400000  * -49.85900000  *
  1035       H         62.67100000  *  143.24000000  * -48.98800000  *
  1036       C         61.00200000  *  142.26000000  * -49.77100000  *
  1037       H         60.24600000  *  142.42800000  * -50.53400000  *
  1038       H         61.44700000  *  141.27100000  * -49.89000000  *
  1039       H         60.52000000  *  142.31900000  * -48.79800000  *
  1040       C         62.89500000  *  143.12600000  * -51.08400000  *
  1041       H         63.82900000  *  143.66800000  * -50.95600000  *
  1042       H         63.12900000  *  142.06900000  * -51.20900000  *
  1043       H         62.39300000  *  143.49200000  * -51.96600000  *
  1044       C         61.76300000  *  147.21800000  * -49.95200000  *
  1045       O         61.15000000  *  147.60200000  * -48.96600000  *
  1046       N         61.92400000  *  147.99700000  * -51.01700000  *
  1047       H         62.42200000  *  147.62400000  * -51.81900000  *
  1048       C         61.44500000  *  149.37900000  * -51.07600000  *
  1049       H         61.09000000  *  149.70700000  * -50.10100000  *
  1050       C         62.56200000  *  150.31300000  * -51.52500000  *
  1051       H         62.89200000  *  150.00900000  * -52.51900000  *
  1052       H         62.13800000  *  151.31300000  * -51.59100000  *
  1053       C         63.77300000  *  150.35900000  * -50.59700000  *
  1054       H         64.28200000  *  149.39800000  * -50.60900000  *
  1055       C         64.69400000  *  151.43100000  * -51.15800000  *
  1056       H         64.31800000  *  152.41300000  * -50.88300000  *
  1057       H         65.69600000  *  151.28900000  * -50.77300000  *
  1058       H         64.74300000  *  151.37700000  * -52.24200000  *
  1059       C         63.39600000  *  150.71300000  * -49.15800000  *
  1060       H         62.85600000  *  149.88000000  * -48.71200000  *
  1061       H         64.28700000  *  150.88800000  * -48.56400000  *
  1062       H         62.77000000  *  151.60600000  * -49.13700000  *
  1063       C         60.29600000  *  149.52300000  * -52.04700000  *
  1064       O         60.36200000  *  149.02000000  * -53.15300000  *
  1065       N         59.26800000  *  150.25600000  * -51.67700000  *
  1066       H         59.36500000  *  150.76300000  * -50.80000000  *
  1067       C         58.08300000  *  150.44700000  * -52.50800000  *
  1068       H         58.17300000  *  149.92400000  * -53.45700000  *
  1069       C         56.81900000  *  149.90600000  * -51.78600000  *
  1070       H         55.94300000  *  150.08700000  * -52.41500000  *
  1071       C         56.95000000  *  148.40400000  * -51.54300000  *
  1072       H         57.75300000  *  148.18300000  * -50.83300000  *
  1073       H         56.01300000  *  148.00400000  * -51.15200000  *
  1074       H         57.15800000  *  147.91500000  * -52.48900000  *
  1075       C         56.64700000  *  150.60600000  * -50.43300000  *
  1076       H         57.48200000  *  150.38000000  * -49.77500000  *
  1077       H         56.60500000  *  151.68300000  * -50.57600000  *
  1078       C         55.37000000  *  150.22200000  * -49.68600000  *
  1079       H         55.48900000  *  149.24800000  * -49.22200000  *
  1080       H         55.17000000  *  150.96500000  * -48.91000000  *
  1081       H         54.52900000  *  150.16800000  * -50.38500000  *
  1082       C         57.87200000  *  151.93000000  * -52.81700000  *
  1083       O         58.38200000  *  152.79400000  * -52.10000000  *
  1084       N         57.14900000  *  152.22000000  * -53.89700000  *
  1085       H         56.70500000  *  151.48200000  * -54.43300000  *
  1086       C         56.84100000  *  153.60200000  * -54.22700000  *
  1087       H         57.16800000  *  154.27800000  * -53.43100000  *
  1088       C         57.50400000  *  154.05300000  * -55.54100000  *
  1089       H         57.21800000  *  155.07000000  * -55.80500000  *
  1090       H         58.58200000  *  154.04400000  * -55.38800000  *
  1091       C         57.19300000  *  153.14600000  * -56.70100000  *
  1092       O         56.13500000  *  152.53500000  * -56.76400000  *
  1093       N         58.11500000  *  153.07200000  * -57.64100000  *
  1094       H         57.83300000  *  152.61700000  * -58.48600000  *
  1095       H         58.88600000  *  153.71500000  * -57.62100000  *
  1096       C         55.33100000  *  153.75800000  * -54.32100000  *
  1097       O         54.57600000  *  152.79900000  * -54.11400000  *
  1098       N         54.88500000  *  154.97100000  * -54.62100000  *
  1099       H         55.52100000  *  155.73600000  * -54.79200000  *
  1100       C         53.46400000  *  155.24700000  * -54.72300000  *
  1101       H         52.92700000  *  154.82600000  * -53.87200000  *
  1102       C         53.20900000  *  156.78000000  * -54.75500000  *
  1103       H         52.16900000  *  156.98000000  * -55.02600000  *
  1104       C         53.47800000  *  157.39700000  * -53.41000000  *
  1105       H         54.52100000  *  157.25500000  * -53.13000000  *
[...]
 1005  H   0.83009
 1006  C   1.06546   0.80267   0.73038   0.79565
 1007  O   1.87754   1.39092   1.59171   1.83596
 1008  N   1.52693   1.32565   1.44990   1.29853
 1009  H   0.65798
 1010  H   0.66246
 1011  C   1.08204   0.75186   0.78240   0.82036
 1012  O   1.88371   1.66734   1.31419   1.72419
 1013  N   1.55077   1.50712   1.20123   1.30268
 1014  H   0.66734
 1015  C   1.07345   0.94395   1.09454   0.82181
 1016  H   0.80470
 1017  C   1.07061   1.05189   1.09108   1.16357
 1018  H   0.83065
 1019  H   0.79589
 1020  C   1.05798   0.80322   0.76491   0.75914
 1021  O   1.87604   1.77627   1.41171   1.60903
 1022  N   1.53078   1.30875   1.19590   1.58478
 1023  H   0.66118
 1024  H   0.65681
 1025  C   1.08777   0.78451   0.71950   0.85261
 1026  O   1.87861   1.76515   1.61041   1.38292
 1027  N   1.54097   1.12562   1.66455   1.18335
 1028  H   0.65366
 1029  C   1.06974   0.96842   0.97910   0.97462
 1030  H   0.81175
 1031  C   1.06729   1.06460   0.99799   1.17269
 1032  H   0.83706
 1033  H   0.84829
 1034  C   1.04098   1.01166   0.94625   1.06208
 1035  H   0.85561
 1036  C   1.04918   1.12585   1.11836   1.17076
 1037  H   0.84517
 1038  H   0.84932
 1039  H   0.86550
 1040  C   1.05151   1.14159   1.17152   1.09925
 1041  H   0.84483
 1042  H   0.85782
 1043  H   0.85006
 1044  C   1.07725   0.74851   0.84226   0.75572
 1045  O   1.87203   1.53896   1.79786   1.44138
 1046  N   1.54612   1.54608   1.17361   1.25705
 1047  H   0.64616
 1048  C   1.06430   0.98146   0.83078   1.09916
 1049  H   0.81414
 1050  C   1.06414   1.03332   1.10451   1.11960
 1051  H   0.84590
 1052  H   0.84068
 1053  C   1.04842   0.97706   1.06362   0.96519
 1054  H   0.86546
 1055  C   1.05425   1.13553   1.12448   1.15984
 1056  H   0.84622
 1057  H   0.85124
 1058  H   0.85686
 1059  C   1.05452   1.17240   1.17345   1.05227
 1060  H   0.84070
 1061  H   0.85444
 1062  H   0.84683
 1063  C   1.07340   0.80196   0.74401   0.81516
 1064  O   1.86572   1.83353   1.61974   1.35422
 1065  N   1.53932   1.20110   1.45644   1.29939
 1066  H   0.64437
 1067  C   1.07603   0.88944   1.00641   1.04246
 1068  H   0.80902
 1069  C   1.06435   1.01564   0.99322   1.01958
 1070  H   0.85014
 1071  C   1.05461   1.18094   1.03384   1.17690
 1072  H   0.84365
 1073  H   0.84514
 1074  H   0.85257
 1075  C   1.05399   1.06962   1.12045   1.03125
 1076  H   0.84581
 1077  H   0.86091
 1078  C   1.05244   1.08949   1.15716   1.13162
 1079  H   0.84817
 1080  H   0.87847
 1081  H   0.84677
 1082  C   1.08618   0.74284   0.88797   0.74274
 1083  O   1.88689   1.56817   1.57647   1.55615
 1084  N   1.54296   1.50758   1.14402   1.33783
 1085  H   0.64308
 1086  C   1.06236   0.97261   0.88442   1.03683
 1087  H   0.80480
 1088  C   1.07266   1.18049   1.12901   1.02451
 1089  H   0.80830
 1090  H   0.80565
 1091  C   1.06078   0.76182   0.77078   0.82316
 1092  O   1.88016   1.35507   1.56887   1.83534
 1093  N   1.53416   1.29765   1.49500   1.27258
 1094  H   0.67109
 1095  H   0.66589
 1096  C   1.08277   0.88472   0.75971   0.71367
 1097  O   1.88782   1.65373   1.46816   1.58800
 1098  N   1.54006   1.14538   1.19740   1.67217
 1099  H   0.66321
 1100  C   1.08562   0.83696   1.05831   1.08282
 1101  H   0.80355
 1102  C   1.08427   0.99136   0.86677   0.88992
 1103  H   0.84702
 1104  C   1.05380   1.18386   1.18032   1.05426
 1105  H   0.84143
 1106  H   0.82409
 1107  H   0.82929
 1108  O   1.84878   1.59247   1.82299   1.34532
 1109  H   0.64244
 1110  C   1.07328   0.78896   0.75548   0.82396
 1111  O   1.87787   1.27981   1.68894   1.84869
 1112  N   1.53330   1.19330   1.53471   1.21102
 1113  H   0.66728
 1114  C   1.05710   1.15376   1.13341   0.89304
 1115  H   0.83538
 1116  H   0.83776
 1117  H   0.83542
 1118  H   0.83989
 1119  C   1.10499   0.75522   0.73557   0.91335
 1120  O   1.88312   1.71102   1.59675   1.48279
 1121  N   1.54490   1.42797   1.34552   1.20857
 1122  H   0.65372
 1123  C   1.08096   0.93030   1.08544   0.93111
 1124  H   0.80781
 1125  C   1.07304   1.07888   0.95343   0.98260
 1126  H   0.84437
 1127  C   1.05809   1.18688   1.08417   1.12922
 1128  H   0.84373
 1129  H   0.84860
 1130  H   0.85233
 1131  C   1.05417   1.07559   1.13555   1.01855
 1132  H   0.85387
 1133  H   0.85289
 1134  C   1.04916   1.14383   1.15073   1.09081
 1135  H   0.85023
 1136  H   0.85965
 1137  H   0.84968
 1138  C   1.07225   0.84198   0.73629   0.77708
 1139  O   1.87766   1.89074   1.52149   1.39138
 1140  N   1.54541   1.10231   1.52681   1.33642
 1141  H   0.63070
 1142  C   1.06983   0.84666   1.05300   1.03810
 1143  H   0.81792
 1144  C   1.06005   1.09317   1.04649   1.09550
 1145  H   0.83775
 1146  H   0.84606
 1147  C   1.05104   1.08510   1.04436   1.07822
 1148  H   0.84954
 1149  H   0.84527
 1150  C   1.05936   1.08224   1.05492   1.09811
 1151  H   0.84148
 1152  H   0.83206
 1153  C   1.07897   1.02182   0.99782   1.07448
 1154  H   0.81059
 1155  H   0.83423
 1156  N   1.45933   1.23143   1.22886   1.25633
 1157  H   0.69607
 1158  H   0.69906
 1159  H   0.68587
 1160  C   1.07829   0.77990   0.75068   0.82554
 1161  O   1.88115   1.77238   1.69276   1.29043
 1162  N   1.54481   1.32890   1.42555   1.23085
 1163  H   0.64042
 1164  C   1.07022   0.91850   0.95752   1.02903
 1165  H   0.83197
 1166  C   1.06273   1.10006   1.01935   1.13296
 1167  H   0.83529
 1168  H   0.84486
 1169  C   1.05370   1.07062   0.96107   0.96344
 1170  H   0.85964
 1171  C   1.06223   1.16611   1.13938   1.09239
 1172  H   0.85193
 1173  H   0.84926
 1174  H   0.85273
 1175  C   1.05740   1.18265   1.13691   1.08879
 1176  H   0.85335
 1177  H   0.84839
 1178  H   0.85429
 1179  C   1.08507   0.79164   0.79869   0.75848
 1180  O   1.88083   1.63447   1.59890   1.53804
 1181  N   1.54379   1.36904   1.43766   1.15929
 1182  H   0.64707
 1183  C   1.06762   0.91392   0.92694   1.04957
 1184  H   0.82866
 1185  C   1.05960   1.16295   1.08494   1.15593
 1186  H   0.82008
 1187  H   0.83546
 1188  H   0.82814
 1189  C   1.08859   0.78795   0.78355   0.74681
 1190  O   1.87239   1.84331   1.36174   1.59553
 1191  N   1.54697   1.17159   1.32197   1.49668
 1192  H   0.67331
 1193  C   1.07600   0.87402   1.08123   0.93462
 1194  H   0.81189
 1195  C   1.08024   1.14614   1.18020   1.00630
 1196  H   0.81158
 1197  H   0.83151
 1198  C   1.07273   0.74136   0.70557   0.72159
 1199  O   1.88578   1.83517   1.52104   1.49150
 1200  O   1.87332   1.59256   1.56408   1.82296
 1201  C   1.09212   0.81807   0.79410   0.74788
 1202  O   1.88755   1.28293   1.80609   1.56504
 1203  N   1.56766   1.29398   1.16943   1.54532
 1204  H   0.67994
 1205  C   1.07951   1.01954   0.91912   0.95334
 1206  H   0.83859
 1207  C   1.05566   1.07755   1.20262   0.96285
 1208  H   0.81394
 1209  H   0.81996
 1210  C   1.07470   0.97408   0.97757   0.97021
 1211  C   1.09004   1.04121   1.04125   1.01426
 1212  H   0.83962
 1213  C   1.08861   0.98539   1.06185   1.01081
 1214  H   0.84227
 1215  C   1.08749   1.05961   0.99157   1.03211
 1216  H   0.84773
 1217  C   1.08947   1.03705   1.03630   0.98909
 1218  H   0.83147
 1219  C   1.08731   0.98632   1.06391   1.02336
 1220  H   0.83869
 1221  C   1.09009   0.80303   0.77320   0.76271
 1222  O   1.88552   1.44261   1.55795   1.71309
 1223  N   1.53976   1.41520   1.43916   1.13740
 1224  H   0.68767
 1225  C   1.06835   0.98904   1.06869   0.97968
 1226  H   0.81707
 1227  H   0.80495
 1228  C   1.07956   0.82824   0.77923   0.70419
 1229  O   1.87713   1.84032   1.32374   1.60861
 1230  N   1.55896   1.30144   1.23365   1.44983
 1231  H   0.67415
 1232  C   1.07784   0.89787   1.03367   0.96943
 1233  H   0.83243
 1234  C   1.06793   1.11377   0.94967   1.17400
 1235  H   0.84027
 1236  H   0.82906
 1237  C   1.05178   1.03119   0.96110   1.01124
 1238  H   0.86320
 1239  C   1.05588   1.16820   1.06709   1.16333
 1240  H   0.85893
 1241  H   0.84266
 1242  H   0.85599
 1243  C   1.05567   1.17177   1.18910   1.04642
 1244  H   0.84138
 1245  H   0.84069
 1246  H   0.85762
 1247  C   1.09507   0.85789   0.76656   0.72732
 1248  O   1.88129   1.32421   1.78603   1.59286
 1249  N   1.58211   1.28170   1.23290   1.52150
 1250  H   0.66102
 1251  C   1.06869   0.96477   0.99756   0.95382
 1252  H   0.83589
 1253  C   1.05859   1.13933   1.09714   1.17432
 1254  H   0.84403
 1255  H   0.80968
 1256  H   0.81101
 1257  C   1.07568   0.83424   0.75250   0.78161
 1258  O   1.88397   1.49917   1.59885   1.64922
 1259  N   1.54300   1.31152   1.51234   1.14407
 1260  H   0.67637
 1261  C   1.06250   0.92401   1.14577   1.10583
 1262  H   0.82622
 1263  H   0.82964
 1264  H   0.83892
 1265  H   0.84133
 1266  C   1.10475   0.72494   0.79434   0.87708
 1267  O   1.88387   1.53288   1.36163   1.88307
 1268  N   1.54281   1.48754   1.35121   1.14849
 1269  H   0.67736
 1270  C   1.07280   1.11709   0.96770   0.82279
 1271  H   0.80277
 1272  C   1.05752   1.09001   1.02737   1.15048
 1273  H   0.83883
 1274  H   0.82061
 1275  C   1.06444   0.97767   0.95025   0.96836
 1276  C   1.08296   1.02011   0.99435   1.05943
 1277  H   0.83890
 1278  C   1.08250   1.04655   1.02688   0.99727
 1279  H   0.84401
 1280  C   1.08140   1.00624   1.05582   1.02592
 1281  H   0.84915
 1282  C   1.08076   1.02444   1.00366   1.05487
 1283  H   0.85463
 1284  C   1.08280   1.05997   1.02696   0.99688
 1285  H   0.84067
 1286  C   1.07997   0.76684   0.78617   0.79905
 1287  O   1.88373   1.53965   1.68102   1.53432
 1288  N   1.53625   1.17508   1.34738   1.43093
 1289  H   0.67310
 1290  C   1.05783   1.14251   0.97564   0.99855
 1291  H   0.81541
 1292  H   0.78929
 1293  C   1.07395   0.78816   0.75680   0.80156
 1294  O   1.88025   1.54068   1.38248   1.84137
 1295  N   1.53622   1.41080   1.37799   1.17760
 1296  H   0.65087
 1297  C   1.07417   1.00262   1.19842   0.87804
 1298  H   0.81244
 1299  H   0.79460
 1300  C   1.08211   0.77426   0.74502   0.80731
 1301  O   1.88287   1.52185   1.53279   1.73137
 1302  N   1.56485   1.44506   1.16629   1.26728
 1303  C   1.07064   1.06879   0.87006   1.05627
 1304  H   0.83675
 1305  H   0.84089
 1306  C   1.05716   1.04711   1.13659   1.05897
 1307  H   0.84570
 1308  H   0.80676
 1309  C   1.06099   1.08183   0.98347   1.17225
 1310  H   0.83549
 1311  H   0.81938
 1312  C   1.07354   1.05272   1.00098   0.86810
 1313  H   0.81318
 1314  C   1.08827   0.76359   0.76844   0.82880
 1315  O   1.88393   1.42697   1.43559   1.88336
 1316  N   1.54312   1.40342   1.48373   1.11752
 1317  H   0.64349
 1318  C   1.08220   1.04969   1.11407   0.89117
 1319  H   0.80093
 1320  H   0.78739
 1321  C   1.08826   0.82553   0.73033   0.77836
 1322  O   1.88491   1.70324   1.72965   1.32949
 1323  N   1.55109   1.23243   1.41127   1.34468
 1324  H   0.68831
 1325  C   1.07568   0.85992   1.06402   0.97858
 1326  H   0.82215
 1327  C   1.05960   1.16893   1.07553   0.97642
 1328  H   0.83484
 1329  H   0.83883
 1330  C   1.05817   1.13842   1.07474   1.02386
 1331  H   0.82465
 1332  H   0.87158
 1333  C   1.06375   1.08745   1.10000   0.78144
 1334  H   0.85050
 1335  H   0.81937
 1336  N   1.53281   1.62694   1.28991   1.09340
 1337  H   0.64879
 1338  C   0.97599   0.83629   0.80291   0.79450
 1339  N   1.50144   1.56338   1.25851   1.24812
 1340  H   0.67467
 1341  H   0.62636
 1342  N   1.50406   1.55702   1.35352   1.14117
 1343  H   0.64458
 1344  H   0.63722
 1345  C   1.08253   0.75748   0.77393   0.84379
 1346  O   1.88761   1.48099   1.64716   1.56793
 1347  N   1.54305   1.54501   1.19761   1.24090
 1348  H   0.67347
 1349  C   1.09008   0.99985   1.01007   0.91870
 1350  H   0.79833
 1351  C   1.08561   0.92998   0.92509   0.87577
 1352  H   0.85290
 1353  C   1.05847   1.09885   1.12821   1.20449
 1354  H   0.82530
 1355  H   0.83270
 1356  H   0.83142
 1357  O   1.84266   1.58478   1.64183   1.57070
 1358  H   0.62401
 1359  C   1.07901   0.81051   0.78991   0.75979
 1360  O   1.88676   1.53987   1.79348   1.37348
 1361  N   1.55295   1.32741   1.29660   1.37776
 1362  H   0.65210
 1363  C   1.07391   0.98897   0.92714   0.99336
 1364  H   0.81737
 1365  C   1.05779   1.09557   1.06846   1.08657
 1366  H   0.84123
 1367  H   0.82889
 1368  C   1.06166   0.97127   0.97498   1.05610
 1369  C   1.08266   0.97378   1.07954   0.99783
 1370  H   0.84496
 1371  C   1.08355   1.08292   0.99476   1.00879
 1372  H   0.80368
 1373  C   1.06586   0.82572   0.89634   0.91706
 1374  O   1.84122   1.47042   1.54157   1.69678
 1375  H   0.63896
 1376  C   1.07425   0.99040   1.09183   1.06681
 1377  H   0.84676
 1378  C   1.08148   1.06438   0.99897   0.99773
 1379  H   0.85814
 1380  C   1.08198   0.77644   0.73403   0.82110
 1381  O   1.88474   1.39056   1.55616   1.82936
 1382  N   1.55036   1.20064   1.60162   1.14815
 1383  H   0.66077
 1384  C   1.08721   1.11704   1.03476   0.83745
 1385  H   0.82133
 1386  C   1.08255   0.83224   0.89084   1.00017
 1387  H   0.86801
 1388  C   1.05719   1.09874   1.14109   1.18960
 1389  H   0.83125
 1390  H   0.84549
 1391  H   0.84158
 1392  O   1.84703   1.32388   1.76616   1.66698
 1393  H   0.61653
 1394  C   1.08198   0.82817   0.76390   0.79188
 1395  O   1.88731   1.29179   1.70677   1.67706
 1396  N   1.54288   1.22794   1.27102   1.47584
 1397  H   0.64946
 1398  C   1.07065   0.98390   1.04042   1.07607
 1399  H   0.84420
 1400  H   0.80874
 1401  C   1.07026   0.85082   0.72019   0.75159
 1402  O   1.88497   1.70082   1.45754   1.55938
 1403  N   1.55350   1.14734   1.51373   1.33252
 1404  H   0.67993
 1405  C   1.07059   0.82922   0.98702   1.12853
 1406  H   0.81444
 1407  C   1.05332   1.16410   0.99026   1.05260
 1408  H   0.83933
 1409  H   0.83648
 1410  C   1.05971   1.20542   1.01147   1.13798
 1411  H   0.84289
 1412  H   0.82590
 1413  C   1.06674   0.72271   0.72041   0.72784
 1414  O   1.88753   1.47368   1.82368   1.63726
 1415  O   1.88503   1.51766   1.58622   1.81408
 1416  C   1.08683   0.77111   0.86266   0.75461
 1417  O   1.88734   1.64839   1.65298   1.40938
 1418  N   1.54583   1.31035   1.19194   1.47862
 1419  H   0.65320
 1420  C   1.07212   1.06263   0.88125   1.00740
 1421  H   0.84362
 1422  C   1.05449   1.01872   1.03228   0.97105
 1423  H   0.83629
 1424  C   1.05591   1.17744   1.04876   1.19321
 1425  H   0.84539
 1426  H   0.83585
 1427  H   0.83809
 1428  C   1.05455   1.18127   1.16758   1.06132
 1429  H   0.84069
 1430  H   0.83988
 1431  H   0.85198
 1432  C   1.07570   0.77105   0.73155   0.84223
 1433  O   1.88368   1.36373   1.63752   1.76941
 1434  N   1.53827   1.27322   1.47292   1.21102
 1435  H   0.66883
 1436  C   1.07707   1.00693   1.05447   0.86824
 1437  H   0.82255
 1438  C   1.06066   1.02676   1.01620   0.97694
 1439  H   0.84032
 1440  C   1.05418   1.18419   1.09811   1.12142
 1441  H   0.84114
 1442  H   0.84066
 1443  H   0.85064
 1444  C   1.05733   1.18973   1.16631   1.05237
 1445  H   0.84662
 1446  H   0.83541
 1447  H   0.83895
 1448  C   1.08154   0.80677   0.78627   0.75097
 1449  O   1.88313   1.81170   1.47362   1.46032
 1450  N   1.53598   1.23696   1.43137   1.31658
 1451  H   0.66478
 1452  C   1.07961   0.90422   0.96821   1.14850
 1453  H   0.80511
 1454  C   1.07968   0.93560   0.82466   0.98273
 1455  H   0.86707
 1456  C   1.05745   1.09500   1.13576   1.19633
 1457  H   0.82473
 1458  H   0.82214
 1459  H   0.84123
 1460  O   1.84757   1.47790   1.49394   1.78184
 1461  H   0.64858
 1462  C   1.07064   0.75367   0.82650   0.79804
 1463  O   1.88053   1.50737   1.88272   1.36451
 1464  N   1.53713   1.54996   1.12177   1.29442
 1465  H   0.65697
 1466  C   1.05412   1.16778   0.87310   1.13583
 1467  H   0.83021
 1468  H   0.83670
 1469  H   0.85122
 1470  H   0.82741
 1471  C   1.10845   0.72195   0.77569   0.90301
 1472  O   1.87917   1.50027   1.39718   1.89103
 1473  N   1.54806   1.50778   1.35863   1.13691
 1474  H   0.67055
 1475  C   1.07822   1.08307   1.04083   0.80187
 1476  H   0.80370
 1477  C   1.05903   1.13426   0.99952   1.10161
 1478  H   0.81854
 1479  H   0.82211
 1480  C   1.06601   0.97584   0.99260   1.00493
 1481  C   1.08222   0.99071   1.02508   1.00496
 1482  H   0.83755
 1483  C   1.07633   1.10498   1.04964   1.06609
 1484  H   0.82046
 1485  C   1.07248   0.88643   0.88218   0.88001
 1486  O   1.83868   1.35496   1.61301   1.73283
 1487  H   0.61922
 1488  C   1.07858   0.98872   1.09947   1.09653
 1489  H   0.82163
 1490  C   1.08812   1.07862   0.97905   0.96934
 1491  H   0.83510
 1492  C   1.08085   0.79994   0.76890   0.79198
 1493  O   1.88631   1.81387   1.69944   1.28030
 1494  N   1.53472   1.25591   1.50896   1.18459
 1495  H   0.67097
 1496  C   1.06143   0.92032   1.08955   1.16676
 1497  H   0.83436
 1498  H   0.82978
 1499  H   0.83851
 1500  H   0.82498
 1501  C   1.10799   0.78631   0.88385   0.71627
 1502  O   1.88013   1.43040   1.87072   1.50910
 1503  N   1.55064   1.37512   1.18537   1.44524
 1504  H   0.64432
 1505  C   1.07868   0.96566   0.86316   1.12898
 1506  H   0.81509
 1507  C   1.05975   0.97992   0.99668   1.07633
 1508  H   0.84642
 1509  C   1.05205   1.15819   1.06257   1.17611
 1510  H   0.84449
 1511  H   0.84447
 1512  H   0.84182
 1513  C   1.04780   0.99990   1.12970   1.08513
 1514  H   0.86665
 1515  H   0.85360
 1516  C   1.04901   1.11602   1.12973   1.14929
 1517  H   0.85846
 1518  H   0.85744
 1519  H   0.84119
 1520  C   1.07240   0.85965   0.73791   0.75017
 1521  O   1.87626   1.57619   1.55615   1.67374
 1522  N   1.54215   1.18492   1.41747   1.37458
 1523  H   0.66206
 1524  C   1.07134   0.87897   1.16323   1.10823
 1525  H   0.84318
 1526  H   0.83229
 1527  H   0.83429
 1528  H   0.82781
 1529  C   1.10747   0.84818   0.73333   0.82090
 1530  O   1.88533   1.81646   1.62641   1.36679
 1531  N   1.53775   1.25348   1.40297   1.30525
 1532  H   0.64793
 1533  C   1.05917   0.89138   1.04094   1.02439
 1534  H   0.81937
 1535  C   1.06061   1.03211   1.11495   1.11413
 1536  H   0.82491
 1537  H   0.84747
 1538  C   1.04448   0.99037   0.96312   1.06041
 1539  H   0.87945
 1540  C   1.05445   1.16232   1.06812   1.18058
 1541  H   0.83887
 1542  H   0.84804
 1543  H   0.85372
 1544  C   1.05253   1.12364   1.17250   1.10824
 1545  H   0.85760
 1546  H   0.84719
 1547  H   0.84150
 1548  C   1.07842   0.72957   0.86436   0.77481
 1549  O   1.88173   1.57731   1.45179   1.73566
 1550  N   1.54009   1.57160   1.21324   1.19359
 1551  H   0.66019
 1552  C   1.07168   1.02191   0.93423   0.96021
 1553  H   0.81210
 1554  C   1.05669   1.17021   1.07927   0.99303
 1555  H   0.82470
 1556  H   0.82643
 1557  C   1.05681   1.12988   1.08834   1.03618
 1558  H   0.85358
 1559  H   0.82382
 1560  C   1.06368   1.15812   0.94511   0.90237
 1561  H   0.81567
 1562  H   0.83641
 1563  N   1.52413   1.16124   1.42462   1.39828
 1564  H   0.63936
 1565  C   0.99154   0.79151   0.81260   0.81871
 1566  N   1.51739   1.11700   1.46807   1.48670
 1567  H   0.65521
 1568  H   0.63906
 1569  N   1.50861   1.25116   1.39995   1.41129
 1570  H   0.64166
 1571  H   0.64062
 1572  C   1.08222   0.87366   0.77361   0.74769
 1573  O   1.88843   1.60467   1.59460   1.52015
 1574  N   1.53997   1.17420   1.27254   1.51871
 1575  H   0.65813
 1576  C   1.07422   0.85749   1.08543   1.03736
 1577  H   0.82134
 1578  C   1.06141   1.16442   1.09778   0.98432
 1579  H   0.84250
 1580  H   0.83788
 1581  C   1.04757   1.08148   0.95991   0.94833
 1582  H   0.86922
 1583  C   1.05589   1.17169   1.16282   1.07769
 1584  H   0.85392
 1585  H   0.86107
 1586  H   0.84731
 1587  C   1.05671   1.15733   1.09306   1.15815
 1588  H   0.84992
 1589  H   0.86077
 1590  H   0.84763
 1591  C   1.08317   0.71426   0.76153   0.70259
 1592  O   1.88391   1.46804   1.86970   1.62364
 1593  O   1.88754   1.54765   1.59475   1.80348

 **********************
 *                    *
 * JOB ENDED NORMALLY *
 *                    *
 **********************



 TOTAL JOB TIME:            42.75 SECONDS

 == MOPAC DONE ==
