 *******************************************************************************
 **                                                                           **
 **                              MOPAC v23.2.2                                **
 **                                                                           **
 *******************************************************************************
 **          Digital Object Identifier (DOI): 10.5281/zenodo.6511958          **
 **    Visit the DOI location for information on how to cite this program.    **
 *******************************************************************************

                              PM7 CALCULATION RESULTS

 *******************************************************************************
 *  CALCULATION DONE: (MAX THREADS = 12)             Tue Jan 27 15:57:46 2026  *
 *  PM7        - The PM7 Hamiltonian to be used
 *  MOZYME     - USE LOCALIZED M.O.s IN SOLVING THE SCF EQUATIONS
 *
 *
 *
 *                 CHARGE ON SYSTEM = +2
 *
 *
 *
 *  EPS=78.4   - USE ANDREAS KLAMT'S COSMO IMPLICIT SOLVATION MODEL
 *  1SCF       - DO 1 SCF AND THEN STOP 
 *  T=         - A TIME OF 172800.0 SECONDS REQUESTED
 *  DUMP=N     - RESTART FILE WRITTEN EVERY 7200.0 SECONDS REQUESTED
 *******************************************************************************
PM7 1SCF MOZYME CHARGE=2 EPS=78.4


   ATOM   CHEMICAL          X               Y               Z
  NUMBER   SYMBOL      (ANGSTROMS)     (ANGSTROMS)     (ANGSTROMS)

     1       H         71.69100000  *  165.23700000  * -45.36000000  *
     2       C         70.72700000  *  165.64400000  * -45.02500000  *
     3       O         70.67100000  *  166.69300000  * -44.40000000  *
     4       N         69.64800000  *  164.94600000  * -45.35400000  *
     5       H         69.74300000  *  164.08600000  * -45.86500000  *
     6       C         68.31800000  *  165.37700000  * -44.95100000  *
     7       H         68.30400000  *  166.44500000  * -44.75000000  *
     8       C         67.27900000  *  165.08100000  * -46.05800000  *
     9       H         67.27200000  *  164.02200000  * -46.29800000  *
    10       C         65.89200000  *  165.46600000  * -45.59200000  *
    11       H         65.46400000  *  166.22900000  * -46.24500000  *
    12       H         65.23700000  *  164.60600000  * -45.62700000  *
    13       H         65.87600000  *  165.89500000  * -44.58400000  *
    14       C         67.63700000  *  165.85600000  * -47.31700000  *
    15       H         68.59400000  *  165.52900000  * -47.70800000  *
    16       H         66.87900000  *  165.66900000  * -48.07700000  *
    17       H         67.68800000  *  166.92100000  * -47.10100000  *
    18       C         67.91500000  *  164.66400000  * -43.65700000  *
    19       O         67.55300000  *  165.30600000  * -42.67600000  *
    20       N         67.98400000  *  163.33800000  * -43.65800000  *
    21       H         68.28400000  *  162.85200000  * -44.48600000  *
    22       C         67.62300000  *  162.54400000  * -42.48700000  *
    23       H         67.90600000  *  163.07600000  * -41.58100000  *
    24       C         66.12800000  *  162.23500000  * -42.45900000  *
    25       H         65.92600000  *  161.47400000  * -43.20900000  *
    26       H         65.88500000  *  161.80700000  * -41.48800000  *
    27       C         65.21300000  *  163.39800000  * -42.74000000  *
    28       H         65.33100000  *  164.15700000  * -41.96400000  *
    29       H         65.45900000  *  163.81400000  * -43.69700000  *
    30       C         63.76600000  *  162.97200000  * -42.82400000  *
    31       O         63.44700000  *  162.11400000  * -43.67900000  *
    32       O         62.94800000  *  163.49400000  * -42.03400000  *
    33       C         68.34700000  *  161.22200000  * -42.57700000  *
    34       O         68.73000000  *  160.78800000  * -43.66100000  *
    35       N         68.52400000  *  160.57500000  * -41.43500000  *
    36       H         68.03000000  *  160.89100000  * -40.60600000  *
    37       C         69.17300000  *  159.28200000  * -41.42100000  *
    38       H         69.95100000  *  159.22100000  * -42.17800000  *
    39       C         69.75600000  *  159.01000000  * -40.03200000  *
    40       H         70.21900000  *  159.94300000  * -39.71800000  *
    41       H         68.96300000  *  158.79100000  * -39.31600000  *
    42       C         70.79800000  *  157.89600000  * -39.98300000  *
    43       H         70.31100000  *  156.94100000  * -40.17400000  *
    44       H         71.53800000  *  158.07300000  * -40.76900000  *
    45       C         71.50100000  *  157.83200000  * -38.61800000  *
    46       H         70.74900000  *  157.59000000  * -37.86000000  *
    47       H         72.23100000  *  157.01800000  * -38.63800000  *
    48       C         72.18600000  *  159.16200000  * -38.26900000  *
    49       H         72.83200000  *  159.42500000  * -39.10900000  *
    50       H         71.41200000  *  159.93100000  * -38.15600000  *
    51       N         73.00000000  *  159.10500000  * -37.02500000  *
    52       H         73.70000000  *  158.37000000  * -37.07400000  *
    53       H         73.43800000  *  159.98800000  * -36.79300000  *
    54       H         72.39100000  *  158.85400000  * -36.25100000  *
    55       C         68.06200000  *  158.28700000  * -41.74800000  *
    56       O         67.16300000  *  158.08100000  * -40.94600000  *
    57       N         68.04100000  *  157.74300000  * -42.97000000  *
    58       H         68.83500000  *  157.91300000  * -43.56700000  *
    59       C         67.06500000  *  156.71200000  * -43.39100000  *
    60       H         66.06600000  *  157.15100000  * -43.37500000  *
    61       C         67.34700000  *  156.20900000  * -44.82500000  *
    62       H         68.42300000  *  156.09400000  * -44.95300000  *
    63       C         66.69000000  *  154.85600000  * -45.12500000  *
    64       H         65.61100000  *  154.91400000  * -44.98000000  *
    65       H         66.89800000  *  154.58500000  * -46.15200000  *
    66       H         67.10200000  *  154.06800000  * -44.49600000  *
    67       C         66.83500000  *  157.25100000  * -45.83200000  *
    68       H         65.74400000  *  157.26400000  * -45.82500000  *
    69       H         67.17500000  *  158.22300000  * -45.49500000  *
    70       C         67.32400000  *  157.03700000  * -47.27200000  *
    71       H         66.86600000  *  156.15200000  * -47.70900000  *
    72       H         67.04700000  *  157.89800000  * -47.87800000  *
    73       H         68.40600000  *  156.93200000  * -47.28900000  *
    74       C         67.05500000  *  155.56600000  * -42.38200000  *
    75       O         65.99300000  *  155.14600000  * -41.91700000  *
    76       N         68.24900000  *  155.10100000  * -42.01400000  *
    77       H         69.08300000  *  155.48100000  * -42.44800000  *
    78       C         68.41600000  *  154.15100000  * -40.93200000  *
    79       H         68.37000000  *  154.68500000  * -39.98200000  *
    80       H         67.60000000  *  153.42700000  * -40.95600000  *
    81       C         69.73400000  *  153.39900000  * -40.98500000  *
    82       O         70.75100000  *  153.86200000  * -41.50800000  *
    83       N         69.69800000  *  152.23600000  * -40.35300000  *
    84       H         68.80800000  *  151.92800000  * -39.99000000  *
    85       C         70.87100000  *  151.53300000  * -39.86200000  *
    86       H         71.75400000  *  152.16300000  * -39.97500000  *
    87       C         70.66400000  *  151.27300000  * -38.36300000  *
    88       H         69.84700000  *  150.56400000  * -38.22300000  *
    89       H         71.58600000  *  150.84300000  * -38.00000000  *
    90       C         70.37600000  *  152.55000000  * -37.54800000  *
    91       H         71.20100000  *  153.25200000  * -37.68900000  *
    92       H         69.47200000  *  153.03500000  * -37.92200000  *
    93       C         70.17600000  *  152.26600000  * -36.05100000  *
    94       O         69.21600000  *  151.55000000  * -35.68600000  *
    95       O         70.92700000  *  152.83400000  * -35.22400000  *
    96       C         71.08500000  *  150.25600000  * -40.68600000  *
    97       O         70.37100000  *  149.26300000  * -40.52400000  *
    98       N         71.99200000  *  150.32400000  * -41.66300000  *
    99       H         72.61000000  *  151.12800000  * -41.70600000  *
   100       C         72.14400000  *  149.31000000  * -42.70800000  *
   101       H         71.15700000  *  148.97400000  * -43.02900000  *
   102       H         72.63100000  *  149.77600000  * -43.56400000  *
   103       C         72.96200000  *  148.07800000  * -42.30800000  *
   104       O         73.47700000  *  147.95500000  * -41.19800000  *
   105       N         73.13700000  *  147.17600000  * -43.27400000  *
   106       H         72.67000000  *  147.32600000  * -44.16000000  *
   107       C         73.96900000  *  145.95700000  * -43.18400000  *
   108       H         73.69200000  *  145.39800000  * -42.29000000  *
   109       C         73.71600000  *  145.06400000  * -44.41100000  *
   110       H         74.47100000  *  144.27900000  * -44.46400000  *
   111       C         72.34100000  *  144.41000000  * -44.35200000  *
   112       H         71.55500000  *  145.16700000  * -44.37000000  *
   113       H         72.22600000  *  143.74500000  * -45.20800000  *
   114       H         72.26900000  *  143.81500000  * -43.44300000  *
   115       O         73.78200000  *  145.86000000  * -45.56800000  *
   116       H         73.26400000  *  145.42300000  * -46.28200000  *
   117       C         75.47500000  *  146.22700000  * -43.09900000  *
   118       O         76.18900000  *  145.40600000  * -42.52800000  *
   119       N         75.94600000  *  147.36700000  * -43.62600000  *
   120       H         75.28000000  *  147.92400000  * -44.13600000  *
   121       C         77.37200000  *  147.72800000  * -43.74700000  *
   122       H         77.97000000  *  147.06900000  * -43.11600000  *
   123       C         77.82000000  *  147.52600000  * -45.20700000  *
   124       H         77.22800000  *  148.17800000  * -45.85000000  *
   125       H         78.86400000  *  147.82400000  * -45.30700000  *
   126       C         77.72300000  *  146.10800000  * -45.71000000  *
   127       C         78.65400000  *  145.15600000  * -45.25900000  *
   128       H         79.44700000  *  145.44800000  * -44.58100000  *
   129       C         78.54000000  *  143.82000000  * -45.67200000  *
   130       H         79.25000000  *  143.09500000  * -45.30800000  *
   131       C         77.49100000  *  143.43700000  * -46.53500000  *
   132       O         77.33700000  *  142.13700000  * -46.87900000  *
   133       H         77.80700000  *  141.57200000  * -46.23600000  *
   134       C         76.57800000  *  144.39800000  * -47.01200000  *
   135       H         75.76700000  *  144.10200000  * -47.65800000  *
   136       C         76.70400000  *  145.73700000  * -46.60600000  *
   137       H         75.99200000  *  146.47100000  * -46.95400000  *
   138       C         77.71600000  *  149.16900000  * -43.32600000  *
   139       O         78.85700000  *  149.58700000  * -43.50600000  *
   140       N         76.77100000  *  149.95000000  * -42.79500000  *
   141       H         75.86100000  *  149.56500000  * -42.58900000  *
   142       C         76.98700000  *  151.36600000  * -42.47400000  *
   143       H         77.53700000  *  151.44700000  * -41.53900000  *
   144       H         77.59800000  *  151.81500000  * -43.24800000  *
   145       C         75.68700000  *  152.16100000  * -42.34200000  *
   146       O         74.62200000  *  151.57000000  * -42.14400000  *
   147       N         75.75500000  *  153.49500000  * -42.44900000  *
   148       H         76.58800000  *  153.89400000  * -42.85900000  *
   149       C         74.59200000  *  154.32600000  * -42.21200000  *
   150       H         73.82600000  *  153.78000000  * -41.65800000  *
   151       C         74.95900000  *  155.54800000  * -41.37000000  *
   152       H         75.70700000  *  156.13900000  * -41.89300000  *
   153       C         73.73100000  *  156.40900000  * -41.13300000  *
   154       H         72.94300000  *  155.80300000  * -40.68200000  *
   155       H         73.98600000  *  157.21200000  * -40.45000000  *
   156       H         73.36800000  *  156.84900000  * -42.06500000  *
   157       C         75.54500000  *  155.09600000  * -40.05300000  *
   158       H         76.46000000  *  154.52800000  * -40.19800000  *
   159       H         75.77700000  *  155.95300000  * -39.42300000  *
   160       H         74.80500000  *  154.48400000  * -39.53200000  *
   161       C         74.01900000  *  154.79200000  * -43.53700000  *
   162       O         74.76100000  *  155.18400000  * -44.43700000  *
   163       N         72.69900000  *  154.66500000  * -43.67700000  *
   164       H         72.14800000  *  154.34100000  * -42.88600000  *
   165       C         71.97500000  *  155.13700000  * -44.85600000  *
   166       H         72.69400000  *  155.26800000  * -45.65900000  *
   167       C         70.91800000  *  154.14100000  * -45.36300000  *
   168       H         70.01700000  *  154.20200000  * -44.75200000  *
   169       C         70.56500000  *  154.51400000  * -46.81100000  *
   170       H         71.45500000  *  154.48800000  * -47.43900000  *
   171       H         69.83500000  *  153.81800000  * -47.21600000  *
   172       H         70.14000000  *  155.51400000  * -46.85000000  *
   173       C         71.44100000  *  152.70100000  * -45.30400000  *
   174       H         72.47000000  *  152.67500000  * -45.65000000  *
   175       H         71.40100000  *  152.34300000  * -44.27400000  *
   176       H         70.82800000  *  152.04700000  * -45.92100000  *
   177       C         71.35000000  *  156.48500000  * -44.54800000  *
   178       O         70.59500000  *  156.60800000  * -43.57900000  *
   179       N         71.62500000  *  157.49000000  * -45.37400000  *
   180       H         72.23900000  *  157.32200000  * -46.16900000  *
   181       C         71.01800000  *  158.79600000  * -45.21900000  *
   182       H         70.37900000  *  158.84300000  * -44.33800000  *
   183       C         72.10000000  *  159.86100000  * -45.06900000  *
   184       H         72.79900000  *  159.78100000  * -45.90500000  *
   185       H         71.63400000  *  160.84400000  * -45.14300000  *
   186       C         72.87100000  *  159.84300000  * -43.76800000  *
   187       C         72.34700000  *  160.43100000  * -42.61900000  *
   188       H         71.37700000  *  160.90600000  * -42.66800000  *
   189       C         73.06400000  *  160.45200000  * -41.42500000  *
   190       H         72.63300000  *  160.94600000  * -40.56800000  *
   191       C         74.33000000  *  159.87400000  * -41.37100000  *
   192       O         75.04700000  *  159.90100000  * -40.18700000  *
   193       H         74.69700000  *  160.54100000  * -39.56800000  *
   194       C         74.87500000  *  159.27800000  * -42.50300000  *
   195       H         75.78500000  *  158.71900000  * -42.41900000  *
   196       C         74.14000000  *  159.26700000  * -43.69600000  *
   197       H         74.51800000  *  158.73300000  * -44.56500000  *
   198       C         70.16700000  *  159.17400000  * -46.42900000  *
   199       O         70.41800000  *  158.72400000  * -47.55600000  *
   200       N         69.03200000  *  159.83700000  * -46.21300000  *
   201       H         68.84400000  *  160.14400000  * -45.26500000  *
   202       C         68.29400000  *  160.51000000  * -47.28200000  *
   203       H         68.28600000  *  159.90700000  * -48.19200000  *
   204       C         66.84800000  *  160.82800000  * -46.84700000  *
   205       H         66.33600000  *  159.90500000  * -46.58700000  *
   206       H         66.86500000  *  161.46700000  * -45.96200000  *
   207       C         66.03400000  *  161.51200000  * -47.95700000  *
   208       H         66.51100000  *  162.45100000  * -48.24100000  *
   209       H         65.99600000  *  160.85700000  * -48.82800000  *
   210       C         64.60500000  *  161.80200000  * -47.47000000  *
   211       H         64.13700000  *  160.87000000  * -47.14800000  *
   212       H         64.65000000  *  162.48400000  * -46.61900000  *
   213       C         63.76600000  *  162.43000000  * -48.59200000  *
   214       H         64.29900000  *  163.30300000  * -48.98200000  *
   215       H         63.67300000  *  161.70000000  * -49.40400000  *
   216       N         62.41800000  *  162.83600000  * -48.11300000  *
   217       H         62.48000000  *  163.53200000  * -47.38300000  *
   218       H         61.86900000  *  163.24000000  * -48.86000000  *
   219       H         61.90100000  *  162.05100000  * -47.74200000  *
   220       C         69.09600000  *  161.76800000  * -47.51100000  *
   221       O         69.32200000  *  162.50400000  * -46.55400000  *
   222       N         69.55500000  *  162.00600000  * -48.72500000  *
   223       H         69.34400000  *  161.34200000  * -49.46700000  *
   224       C         70.34900000  *  163.18200000  * -49.01700000  *
   225       H         70.22500000  *  163.93500000  * -48.24000000  *
   226       C         71.81400000  *  162.79200000  * -49.07000000  *
   227       H         71.97800000  *  162.06700000  * -49.86400000  *
   228       H         72.42900000  *  163.67700000  * -49.23900000  *
   229       H         72.10500000  *  162.33200000  * -48.12600000  *
   230       C         69.94400000  *  163.83800000  * -50.32200000  *
   231       O         69.22100000  *  163.25100000  * -51.12800000  *
   232       N         70.40700000  *  165.06400000  * -50.52400000  *
   233       H         70.93200000  *  165.53000000  * -49.79600000  *
   234       C         70.10800000  *  165.77900000  * -51.74600000  *
   235       H         69.54100000  *  165.15900000  * -52.44400000  *
   236       H         69.52200000  *  166.69100000  * -51.53000000  *
   237       H         71.05900000  *  166.04700000  * -52.23900000  *
   238       H         68.08600000  *  164.80700000  * -56.55000000  *
   239       C         68.21200000  *  164.39600000  * -55.53600000  *
   240       O         69.28600000  *  164.50800000  * -54.94200000  *
   241       N         67.13500000  *  163.82300000  * -55.01100000  *
   242       H         66.34000000  *  163.66800000  * -55.61500000  *
   243       C         67.13600000  *  163.21200000  * -53.68800000  *
   244       H         67.86300000  *  163.70700000  * -53.05000000  *
   245       C         65.75500000  *  163.32300000  * -53.02900000  *
   246       H         64.97700000  *  163.06900000  * -53.75000000  *
   247       C         65.64800000  *  162.36600000  * -51.85200000  *
   248       H         66.47200000  *  162.51800000  * -51.15200000  *
   249       H         64.69700000  *  162.53800000  * -51.34700000  *
   250       H         65.65200000  *  161.33900000  * -52.20000000  *
   251       C         65.54000000  *  164.75000000  * -52.56600000  *
   252       H         65.62600000  *  165.42400000  * -53.41600000  *
   253       H         64.53500000  *  164.85100000  * -52.15900000  *
   254       H         66.28400000  *  165.00300000  * -51.81000000  *
   255       C         67.52600000  *  161.76000000  * -53.84700000  *
   256       O         66.97900000  *  161.02800000  * -54.68200000  *
   257       N         68.49600000  *  161.34900000  * -53.04800000  *
   258       H         68.91100000  *  161.99700000  * -52.39100000  *
   259       C         69.01100000  *  159.99200000  * -53.10200000  *
   260       H         68.34600000  *  159.34100000  * -53.67900000  *
   261       C         70.37400000  *  159.97400000  * -53.81600000  *
   262       H         70.77500000  *  158.96500000  * -53.87500000  *
   263       C         70.21400000  *  160.50700000  * -55.21300000  *
   264       H         69.95700000  *  161.56600000  * -55.19000000  *
   265       H         71.15100000  *  160.39100000  * -55.75600000  *
   266       H         69.44200000  *  159.95000000  * -55.73600000  *
   267       C         71.37900000  *  160.85000000  * -53.05700000  *
   268       H         71.56500000  *  160.44500000  * -52.06400000  *
   269       H         72.31500000  *  160.84900000  * -53.61300000  *
   270       H         71.03600000  *  161.88400000  * -52.98400000  *
   271       C         69.19200000  *  159.37200000  * -51.72900000  *
   272       O         69.02000000  *  160.03600000  * -50.68600000  *
   273       N         69.38700000  *  158.06000000  * -51.70900000  *
   274       H         69.46900000  *  157.57000000  * -52.59500000  *
   275       C         69.76000000  *  157.31900000  * -50.52000000  *
   276       H         69.47300000  *  157.87400000  * -49.62800000  *
   277       C         69.00800000  *  155.99600000  * -50.50400000  *
   278       H         69.23800000  *  155.44200000  * -51.41200000  *
   279       H         69.30600000  *  155.41100000  * -49.63300000  *
   280       H         67.93600000  *  156.19000000  * -50.45600000  *
   281       C         71.27900000  *  157.14300000  * -50.54200000  *
   282       O         71.81600000  *  156.46900000  * -51.42600000  *
   283       N         71.97000000  *  157.79100000  * -49.60300000  *
   284       H         71.44500000  *  158.28300000  * -48.88900000  *
   285       C         73.41300000  *  157.73400000  * -49.53500000  *
   286       H         73.80300000  *  157.43200000  * -50.50200000  *
   287       C         73.96100000  *  159.11400000  * -49.18200000  *
   288       H         73.49200000  *  159.84000000  * -49.85100000  *
   289       H         73.62800000  *  159.35800000  * -48.16900000  *
   290       C         75.47300000  *  159.31600000  * -49.26600000  *
   291       H         75.96900000  *  158.63700000  * -48.57100000  *
   292       C         75.94900000  *  159.02000000  * -50.68400000  *
   293       H         75.44100000  *  159.71800000  * -51.34800000  *
   294       H         77.02400000  *  159.18800000  * -50.76300000  *
   295       H         75.74700000  *  157.98700000  * -50.96800000  *
   296       C         75.80400000  *  160.74000000  * -48.87900000  *
   297       H         75.43700000  *  160.94600000  * -47.87600000  *
   298       H         76.88200000  *  160.87900000  * -48.92200000  *
   299       H         75.32000000  *  161.42900000  * -49.57600000  *
   300       C         73.82100000  *  156.71600000  * -48.48500000  *
   301       O         73.39600000  *  156.78100000  * -47.33400000  *
   302       N         74.63900000  *  155.74700000  * -48.89000000  *
   303       H         74.87500000  *  155.73100000  * -49.88000000  *
   304       C         75.13800000  *  154.63100000  * -48.07500000  *
   305       H         74.61100000  *  154.58900000  * -47.12000000  *
   306       C         74.89100000  *  153.32800000  * -48.87400000  *
   307       H         74.44000000  *  153.58000000  * -49.83500000  *
   308       H         75.83500000  *  152.82800000  * -49.09000000  *
   309       C         73.95100000  *  152.30900000  * -48.23200000  *
   310       H         73.07400000  *  152.82000000  * -47.83700000  *
   311       H         73.61600000  *  151.64700000  * -49.03000000  *
   312       C         74.63800000  *  151.47600000  * -47.13500000  *
   313       H         75.60400000  *  151.11700000  * -47.49400000  *
   314       H         74.82100000  *  152.11200000  * -46.26600000  *
   315       C         73.78200000  *  150.26800000  * -46.71200000  *
   316       H         74.26700000  *  149.79100000  * -45.85400000  *
   317       H         72.80300000  *  150.62900000  * -46.37800000  *
   318       N         73.61500000  *  149.28200000  * -47.81800000  *
   319       H         74.50200000  *  148.92000000  * -48.14500000  *
   320       H         73.04400000  *  148.47500000  * -47.53300000  *
   321       H         73.13100000  *  149.69400000  * -48.60600000  *
   322       C         76.62600000  *  154.85700000  * -47.80100000  *
   323       O         77.42200000  *  154.70600000  * -48.71900000  *
   324       N         77.01700000  *  155.22600000  * -46.58100000  *
   325       H         76.29800000  *  155.26800000  * -45.86500000  *
   326       C         78.42200000  *  155.28900000  * -46.15900000  *
   327       H         79.06600000  *  155.59300000  * -46.98900000  *
   328       C         78.56700000  *  156.26000000  * -44.97900000  *
   329       H         78.02700000  *  155.87500000  * -44.10900000  *
   330       H         79.62500000  *  156.33900000  * -44.73000000  *
   331       C         78.01500000  *  157.64300000  * -45.34000000  *
   332       H         78.45100000  *  157.95800000  * -46.27300000  *
   333       H         76.93600000  *  157.57500000  * -45.50000000  *
   334       C         78.25100000  *  158.72500000  * -44.27900000  *
   335       H         77.97800000  *  159.68000000  * -44.73200000  *
   336       H         77.56000000  *  158.53300000  * -43.46900000  *
   337       C         79.67700000  *  158.85000000  * -43.70900000  *
   338       H         80.38400000  *  158.36300000  * -44.39700000  *
   339       H         79.95000000  *  159.91100000  * -43.68600000  *
   340       N         79.78800000  *  158.26900000  * -42.33500000  *
   341       H         79.63700000  *  157.26100000  * -42.37000000  *
   342       H         80.69600000  *  158.42600000  * -41.93200000  *
   343       H         79.10400000  *  158.64600000  * -41.70100000  *
   344       C         78.82300000  *  153.89100000  * -45.72900000  *
   345       O         78.09100000  *  153.31500000  * -44.93700000  *
   346       N         79.90700000  *  153.32000000  * -46.24700000  *
   347       H         80.40500000  *  153.76400000  * -47.01000000  *
   348       C         80.34300000  *  152.02200000  * -45.76800000  *
   349       H         79.49500000  *  151.49800000  * -45.35900000  *
   350       C         80.94400000  *  151.18600000  * -46.89500000  *
   351       H         81.78600000  *  151.78200000  * -47.16900000  *
   352       C         81.42400000  *  149.85200000  * -46.34500000  *
   353       H         80.65600000  *  149.35200000  * -45.75200000  *
   354       H         81.67900000  *  149.19900000  * -47.17900000  *
   355       H         82.34500000  *  149.95700000  * -45.76100000  *
   356       C         79.89700000  *  150.97600000  * -47.99700000  *
   357       H         79.60200000  *  151.87000000  * -48.50000000  *
   358       H         80.28300000  *  150.30500000  * -48.75000000  *
   359       C         78.59100000  *  150.36100000  * -47.52600000  *
   360       H         78.17700000  *  150.90100000  * -46.69000000  *
   361       H         77.89400000  *  150.33700000  * -48.36300000  *
   362       H         78.77100000  *  149.33300000  * -47.20900000  *
   363       C         81.33300000  *  152.07100000  * -44.61400000  *
   364       O         82.16700000  *  152.98000000  * -44.51900000  *
   365       N         81.21100000  *  151.07100000  * -43.74300000  *
   366       H         80.50300000  *  150.36100000  * -43.92800000  *
   367       C         82.04400000  *  150.90200000  * -42.55200000  *
   368       H         81.47500000  *  151.18100000  * -41.66300000  *
   369       H         82.35800000  *  149.86100000  * -42.45900000  *
   370       H         82.94700000  *  151.51400000  * -42.62000000  *
   371       H         81.25700000  *  144.04600000  * -57.89900000  *
   372       C         80.50000000  *  144.84100000  * -57.88800000  *
   373       O         79.71500000  *  144.99000000  * -58.82400000  *
   374       N         80.49900000  *  145.60300000  * -56.79700000  *
   375       H         81.28000000  *  145.52500000  * -56.16600000  *
   376       C         79.57000000  *  146.70600000  * -56.61200000  *
   377       H         78.57500000  *  146.34400000  * -56.42300000  *
   378       C         80.00500000  *  147.61000000  * -55.44200000  *
   379       H         80.89800000  *  148.18000000  * -55.68500000  *
   380       C         78.90600000  *  148.60800000  * -55.12500000  *
   381       H         77.92000000  *  148.14100000  * -55.17600000  *
   382       H         79.04500000  *  148.98700000  * -54.11600000  *
   383       H         78.93800000  *  149.43600000  * -55.83300000  *
   384       C         80.32100000  *  146.76200000  * -54.20900000  *
   385       H         81.19200000  *  146.13400000  * -54.40600000  *
   386       H         80.59400000  *  147.42200000  * -53.38900000  *
   387       C         79.18400000  *  145.87900000  * -53.76500000  *
   388       H         78.77800000  *  145.31100000  * -54.59400000  *
   389       H         79.50900000  *  145.12200000  * -53.06500000  *
   390       H         78.38800000  *  146.48300000  * -53.33500000  *
   391       C         79.54300000  *  147.54500000  * -57.87900000  *
   392       O         78.48200000  *  147.77900000  * -58.45100000  *
   393       N         80.72300000  *  147.98900000  * -58.30900000  *
   394       H         81.55800000  *  147.70100000  * -57.81200000  *
   395       C         80.85900000  *  148.80400000  * -59.51100000  *
   396       H         80.33900000  *  149.74600000  * -59.38600000  *
   397       H         81.92800000  *  148.98500000  * -59.72900000  *
   398       H         80.37800000  *  148.32200000  * -60.38100000  *
   399       H         78.96400000  *  146.08700000  * -61.65600000  *
   400       C         77.87300000  *  146.08700000  * -61.51600000  *
   401       O         77.11500000  *  145.89500000  * -62.46400000  *
   402       N         77.44600000  *  146.31800000  * -60.28000000  *
   403       H         78.13400000  *  146.42500000  * -59.54900000  *
   404       C         76.02800000  *  146.35200000  * -59.94500000  *
   405       H         75.53300000  *  145.47600000  * -60.35900000  *
   406       C         75.84100000  *  146.37400000  * -58.43100000  *
   407       H         76.20500000  *  147.30400000  * -58.01800000  *
   408       H         74.76300000  *  146.35700000  * -58.24200000  *
   409       C         76.47200000  *  145.22200000  * -57.65900000  *
   410       H         77.55000000  *  145.23900000  * -57.74900000  *
   411       C         76.08000000  *  145.34100000  * -56.19200000  *
   412       H         74.99900000  *  145.23000000  * -56.07700000  *
   413       H         76.57300000  *  144.55300000  * -55.62900000  *
   414       H         76.38500000  *  146.30900000  * -55.80100000  *
   415       C         75.99600000  *  143.89000000  * -58.23600000  *
   416       H         76.41500000  *  143.73000000  * -59.22900000  *
   417       H         76.32800000  *  143.07800000  * -57.59100000  *
   418       H         74.90500000  *  143.87400000  * -58.30500000  *
   419       C         75.32200000  *  147.55900000  * -60.54800000  *
   420       O         74.09500000  *  147.56800000  * -60.66200000  *
   421       N         76.08400000  *  148.63100000  * -60.82900000  *
   422       H         77.08200000  *  148.53500000  * -60.67700000  *
   423       C         75.60100000  *  149.83300000  * -61.53400000  *
   424       H         74.83700000  *  150.33500000  * -60.94100000  *
   425       H         76.43800000  *  150.53300000  * -61.75900000  *
   426       H         75.13800000  *  149.54900000  * -62.49200000  *
   427       H         62.79000000  *  145.77200000  * -59.27600000  *
   428       C         63.71000000  *  145.72000000  * -58.67500000  *
   429       O         63.77900000  *  145.02200000  * -57.66400000  *
   430       N         64.72400000  *  146.45200000  * -59.11400000  *
   431       H         64.63800000  *  147.05100000  * -59.92700000  *
   432       C         65.97100000  *  146.53500000  * -58.38100000  *
   433       H         65.88400000  *  146.09200000  * -57.38600000  *
   434       C         67.11600000  *  145.87700000  * -59.11400000  *
   435       H         67.33600000  *  146.42600000  * -60.03000000  *
   436       C         68.35100000  *  145.87800000  * -58.21400000  *
   437       H         68.14700000  *  145.31400000  * -57.31800000  *
   438       H         69.21000000  *  145.44500000  * -58.72400000  *
   439       H         68.64100000  *  146.89000000  * -57.94500000  *
   440       C         66.72800000  *  144.44400000  * -59.47800000  *
   441       H         66.54900000  *  143.87300000  * -58.56400000  *
   442       H         65.81500000  *  144.42400000  * -60.06800000  *
   443       C         67.77400000  *  143.72700000  * -60.29600000  *
   444       H         68.68300000  *  143.57700000  * -59.72200000  *
   445       H         67.37700000  *  142.75300000  * -60.59800000  *
   446       H         68.02300000  *  144.31300000  * -61.18000000  *
   447       C         66.29500000  *  148.01000000  * -58.22000000  *
   448       O         66.21200000  *  148.78000000  * -59.18400000  *
   449       N         66.56200000  *  148.43400000  * -56.98300000  *
   450       H         66.63000000  *  147.74800000  * -56.23600000  *
   451       C         66.90300000  *  149.82700000  * -56.67200000  *
   452       H         66.08300000  *  150.47200000  * -56.98200000  *
   453       C         67.11800000  *  150.00700000  * -55.16300000  *
   454       H         67.90900000  *  149.33400000  * -54.82900000  *
   455       C         67.50000000  *  151.43900000  * -54.77500000  *
   456       H         66.66800000  *  152.11500000  * -54.96600000  *
   457       H         67.74500000  *  151.47400000  * -53.71400000  *
   458       H         68.36600000  *  151.77500000  * -55.34100000  *
   459       C         65.83400000  *  149.67600000  * -54.40100000  *
   460       H         65.53000000  *  148.64700000  * -54.56800000  *
   461       H         66.03000000  *  149.79900000  * -53.34600000  *
   462       H         65.03000000  *  150.34100000  * -54.71100000  *
   463       C         68.15700000  *  150.21600000  * -57.45000000  *
   464       O         69.18900000  *  149.55000000  * -57.33100000  *
   465       N         68.08000000  *  151.28300000  * -58.25100000  *
   466       H         67.22500000  *  151.80400000  * -58.24500000  *
   467       C         69.18900000  *  151.69800000  * -59.08000000  *
   468       H         69.52500000  *  150.81900000  * -59.63900000  *
   469       C         68.73700000  *  152.76800000  * -60.08300000  *
   470       H         67.83400000  *  152.41100000  * -60.57900000  *
   471       H         68.47700000  *  153.68100000  * -59.53700000  *
   472       C         69.79100000  *  153.06900000  * -61.13100000  *
   473       H         70.72100000  *  153.35000000  * -60.64200000  *
   474       H         69.97400000  *  152.16800000  * -61.71600000  *
   475       C         69.35100000  *  154.17900000  * -62.08100000  *
   476       H         68.50200000  *  153.81400000  * -62.66100000  *
   477       H         69.02300000  *  155.05600000  * -61.52200000  *
   478       C         70.49800000  *  154.55900000  * -63.02400000  *
   479       H         71.33900000  *  154.89000000  * -62.40800000  *
   480       H         70.81900000  *  153.66100000  * -63.56600000  *
   481       N         70.11800000  *  155.62600000  * -63.99700000  *
   482       H         69.74700000  *  156.41600000  * -63.48300000  *
   483       H         70.92600000  *  155.93300000  * -64.52500000  *
   484       H         69.41500000  *  155.27800000  * -64.63600000  *
   485       C         70.36000000  *  152.21400000  * -58.25300000  *
   486       O         70.19400000  *  153.07400000  * -57.38700000  *
   487       N         71.53700000  *  151.64500000  * -58.50700000  *
   488       H         71.59600000  *  150.90400000  * -59.18600000  *
   489       C         72.75000000  *  152.07400000  * -57.83600000  *
   490       H         72.53800000  *  152.52600000  * -56.87100000  *
   491       C         73.72700000  *  150.91100000  * -57.67000000  *
   492       H         73.31500000  *  150.22100000  * -56.93700000  *
   493       H         73.77900000  *  150.36900000  * -58.62000000  *
   494       C         75.16700000  *  151.27300000  * -57.28800000  *
   495       H         75.65500000  *  151.80300000  * -58.10000000  *
   496       C         75.18300000  *  152.16500000  * -56.05900000  *
   497       H         74.60800000  *  151.72100000  * -55.25200000  *
   498       H         76.21000000  *  152.29600000  * -55.73500000  *
   499       H         74.78900000  *  153.14000000  * -56.31200000  *
   500       C         75.93300000  *  149.99400000  * -57.01300000  *
   501       H         75.98300000  *  149.42100000  * -57.93300000  *
   502       H         76.94600000  *  150.24200000  * -56.71200000  *
   503       H         75.43500000  *  149.41000000  * -56.23200000  *
   504       C         73.31900000  *  153.11300000  * -58.79500000  *
   505       O         73.76900000  *  152.77900000  * -59.89700000  *
   506       N         73.26700000  *  154.36900000  * -58.37800000  *
   507       H         72.92600000  *  154.57000000  * -57.44900000  *
   508       C         73.73400000  *  155.46600000  * -59.19700000  *
   509       H         73.47500000  *  155.26500000  * -60.23600000  *
   510       C         73.02500000  *  156.74200000  * -58.76000000  *
   511       H         73.45000000  *  157.06300000  * -57.80900000  *
   512       H         73.23600000  *  157.53300000  * -59.48700000  *
   513       C         71.51300000  *  156.60300000  * -58.58700000  *
   514       H         71.27400000  *  155.80900000  * -57.88500000  *
   515       C         70.97400000  *  157.88000000  * -58.01900000  *
   516       H         71.37000000  *  158.74600000  * -58.56000000  *
   517       H         69.88800000  *  157.89100000  * -58.09300000  *
   518       H         71.22100000  *  157.96000000  * -56.96600000  *
   519       C         70.85100000  *  156.29000000  * -59.92300000  *
   520       H         71.28300000  *  155.39700000  * -60.34200000  *
   521       H         69.78900000  *  156.14400000  * -59.75100000  *
   522       H         71.00300000  *  157.12700000  * -60.60700000  *
   523       C         75.24500000  *  155.67800000  * -59.15800000  *
   524       O         75.83900000  *  156.04700000  * -60.17600000  *
   525       N         75.86200000  *  155.44600000  * -57.99600000  *
   526       H         75.29500000  *  155.17900000  * -57.20400000  *
   527       C         77.30800000  *  155.64700000  * -57.82900000  *
   528       H         77.80800000  *  155.40400000  * -58.76600000  *
   529       C         77.60000000  *  157.11700000  * -57.51900000  *
   530       H         76.91700000  *  157.54400000  * -56.80300000  *
   531       H         78.58200000  *  157.17000000  * -57.04800000  *
   532       C         77.65600000  *  157.97500000  * -58.75600000  *
   533       O         78.67800000  *  157.91700000  * -59.48300000  *
   534       O         76.67400000  *  158.70400000  * -59.00000000  *
   535       C         77.97900000  *  154.81700000  * -56.73400000  *
   536       O         77.37100000  *  154.52100000  * -55.70400000  *
   537       N         79.24700000  *  154.47700000  * -56.96600000  *
   538       H         79.69800000  *  154.82400000  * -57.79800000  *
   539       C         80.06100000  *  153.73800000  * -56.00300000  *
   540       H         79.55400000  *  153.69900000  * -55.05200000  *
   541       C         80.36600000  *  152.29800000  * -56.50400000  *
   542       H         79.42700000  *  151.75200000  * -56.56200000  *
   543       C         80.98100000  *  152.34300000  * -57.88400000  *
   544       H         82.06600000  *  152.43300000  * -57.82100000  *
   545       H         80.74600000  *  151.41400000  * -58.37900000  *
   546       H         80.59600000  *  153.14500000  * -58.51000000  *
   547       C         81.29900000  *  151.58800000  * -55.53900000  *
   548       H         80.81100000  *  151.54900000  * -54.57200000  *
   549       H         81.47300000  *  150.57200000  * -55.87800000  *
   550       H         82.25900000  *  152.09200000  * -55.44900000  *
   551       C         81.36500000  *  154.53600000  * -55.81000000  *
   552       O         82.27000000  *  154.48900000  * -56.64700000  *
   553       N         81.45200000  *  155.28200000  * -54.71000000  *
   554       H         80.67600000  *  155.30400000  * -54.06400000  *
   555       C         82.62100000  *  156.11100000  * -54.44300000  *
   556       H         83.20500000  *  156.21800000  * -55.35800000  *
   557       H         82.32200000  *  157.12800000  * -54.14500000  *
   558       H         83.29700000  *  155.73900000  * -53.65600000  *
   559       H         84.58000000  *  155.17100000  * -47.07300000  *
   560       C         84.22500000  *  154.98400000  * -48.09100000  *
   561       O         84.63900000  *  155.65900000  * -49.04200000  *
   562       N         83.35800000  *  153.99100000  * -48.22200000  *
   563       H         83.13600000  *  153.42800000  * -47.41700000  *
   564       C         82.77600000  *  153.65100000  * -49.50600000  *
   565       H         83.37000000  *  154.04700000  * -50.31700000  *
   566       C         82.71900000  *  152.14000000  * -49.66000000  *
   567       H         83.74000000  *  151.87500000  * -49.95700000  *
   568       H         82.64400000  *  151.54600000  * -48.78400000  *
   569       C         81.82600000  *  151.61900000  * -50.77900000  *
   570       H         80.79100000  *  151.88400000  * -50.58700000  *
   571       C         82.25800000  *  152.23100000  * -52.09200000  *
   572       H         83.31100000  *  152.49100000  * -52.08900000  *
   573       H         82.09300000  *  151.51300000  * -52.88400000  *
   574       H         81.65400000  *  153.10900000  * -52.31200000  *
   575       C         81.89900000  *  150.09400000  * -50.82200000  *
   576       H         81.91300000  *  149.66400000  * -49.82700000  *
   577       H         81.05200000  *  149.70600000  * -51.39100000  *
   578       H         82.82500000  *  149.80300000  * -51.32100000  *
   579       C         81.36700000  *  154.23200000  * -49.54800000  *
   580       O         80.51800000  *  153.85700000  * -48.74500000  *
   581       N         81.13100000  *  155.16100000  * -50.46700000  *
   582       H         81.84500000  *  155.34800000  * -51.16200000  *
   583       C         79.82200000  *  155.78100000  * -50.60800000  *
   584       H         79.27400000  *  155.67000000  * -49.68700000  *
   585       C         79.96700000  *  157.27800000  * -50.86800000  *
   586       H         80.42300000  *  157.50400000  * -51.79700000  *
   587       H         78.95400000  *  157.66400000  * -50.98900000  *
   588       C         80.57600000  *  158.04300000  * -49.72300000  *
   589       C         79.79300000  *  158.48000000  * -48.65600000  *
   590       H         78.73500000  *  158.25400000  * -48.66900000  *
   591       C         80.35600000  *  159.18600000  * -47.59400000  *
   592       H         79.75300000  *  159.56200000  * -46.79700000  *
   593       C         81.71600000  *  159.45200000  * -47.58700000  *
   594       O         82.27600000  *  160.12500000  * -46.52100000  *
   595       H         83.20600000  *  160.30800000  * -46.74500000  *
   596       C         82.51400000  *  159.02600000  * -48.63700000  *
   597       H         83.58200000  *  159.23300000  * -48.65000000  *
   598       C         81.94100000  *  158.32800000  * -49.69800000  *
   599       H         82.57400000  *  157.98100000  * -50.50200000  *
   600       C         79.04800000  *  155.15800000  * -51.76500000  *
   601       O         79.54400000  *  155.08000000  * -52.88800000  *
   602       N         77.86300000  *  154.62200000  * -51.49600000  *
   603       H         77.53400000  *  154.64800000  * -50.53600000  *
   604       C         76.98300000  *  154.05400000  * -52.51500000  *
   605       H         77.50800000  *  154.00600000  * -53.46300000  *
   606       C         76.55100000  *  152.61900000  * -52.16500000  *
   607       H         75.85900000  *  152.65700000  * -51.33300000  *
   608       H         76.01000000  *  152.21700000  * -53.02200000  *
   609       C         77.68700000  *  151.65000000  * -51.79900000  *
   610       H         78.19800000  *  151.99900000  * -50.90100000  *
   611       C         77.11800000  *  150.26000000  * -51.52000000  *
   612       H         76.62000000  *  149.87100000  * -52.41000000  *
   613       H         77.92300000  *  149.58200000  * -51.23600000  *
   614       H         76.40300000  *  150.31300000  * -50.70000000  *
   615       C         78.69600000  *  151.52900000  * -52.93400000  *
   616       H         79.21400000  *  152.47600000  * -53.06500000  *
   617       H         79.43400000  *  150.76900000  * -52.68400000  *
   618       H         78.18700000  *  151.26100000  * -53.86000000  *
   619       C         75.78700000  *  154.98500000  * -52.67300000  *
   620       O         75.10500000  *  155.26400000  * -51.68400000  *
   621       N         75.54700000  *  155.50800000  * -53.87800000  *
   622       H         76.14500000  *  155.25500000  * -54.66000000  *
   623       C         74.40900000  *  156.37500000  * -54.09400000  *
   624       H         73.97600000  *  156.70200000  * -53.15000000  *
   625       C         74.83400000  *  157.63700000  * -54.81800000  *
   626       H         75.25500000  *  157.34500000  * -55.76600000  *
   627       C         73.61400000  *  158.52200000  * -55.10900000  *
   628       H         73.11700000  *  158.76900000  * -54.17500000  *
   629       H         73.94100000  *  159.43100000  * -55.61500000  *
   630       H         72.91600000  *  158.00900000  * -55.76200000  *
   631       C         75.84000000  *  158.38200000  * -53.94900000  *
   632       H         75.28100000  *  158.78400000  * -53.13000000  *
   633       H         76.65600000  *  157.75800000  * -53.60500000  *
   634       H         76.26100000  *  159.20400000  * -54.52500000  *
   635       C         73.31400000  *  155.64400000  * -54.85300000  *
   636       O         73.49500000  *  155.22100000  * -55.99400000  *
   637       N         72.21400000  *  155.37600000  * -54.15600000  *
   638       H         72.14600000  *  155.73100000  * -53.20700000  *
   639       C         71.03800000  *  154.69800000  * -54.69200000  *
   640       H         71.28600000  *  154.23500000  * -55.64300000  *
   641       C         70.58800000  *  153.60400000  * -53.71900000  *
   642       H         70.46200000  *  154.04200000  * -52.73000000  *
   643       H         69.60900000  *  153.24700000  * -54.03500000  *
   644       C         71.51800000  *  152.40900000  * -53.61200000  *
   645       C         71.37000000  *  151.32100000  * -54.49300000  *
   646       H         70.62600000  *  151.35000000  * -55.27500000  *
   647       C         72.18300000  *  150.18100000  * -54.35500000  *
   648       H         72.05800000  *  149.34200000  * -55.02700000  *
   649       C         73.15400000  *  150.13000000  * -53.34100000  *
   650       H         73.77900000  *  149.25300000  * -53.23400000  *
   651       C         73.30900000  *  151.21800000  * -52.46500000  *
   652       H         74.04800000  *  151.17100000  * -51.68000000  *
   653       C         72.49700000  *  152.35900000  * -52.60100000  *
   654       H         72.61600000  *  153.19100000  * -51.92000000  *
   655       C         69.90400000  *  155.69900000  * -54.92500000  *
   656       O         69.80100000  *  156.70600000  * -54.22300000  *
   657       N         69.02300000  *  155.42500000  * -55.89000000  *
   658       H         69.15700000  *  154.58500000  * -56.44300000  *
   659       C         67.73700000  *  156.13500000  * -55.96700000  *
   660       H         67.95300000  *  157.18300000  * -56.18100000  *
   661       C         66.87300000  *  155.60300000  * -57.12700000  *
   662       H         66.00100000  *  156.25100000  * -57.21500000  *
   663       H         67.44100000  *  155.66500000  * -58.05600000  *
   664       C         66.40400000  *  154.15700000  * -56.92200000  *
   665       H         67.28300000  *  153.51200000  * -56.89600000  *
   666       H         65.89900000  *  154.07900000  * -55.96300000  *
   667       C         65.42600000  *  153.65400000  * -57.99000000  *
   668       O         64.54400000  *  154.40800000  * -58.46200000  *
   669       O         65.49400000  *  152.45300000  * -58.32600000  *
   670       C         66.99200000  *  156.08000000  * -54.61400000  *
   671       O         67.02500000  *  155.06900000  * -53.90300000  *
   672       N         66.32400000  *  157.17100000  * -54.23500000  *
   673       H         66.30000000  *  157.97400000  * -54.84600000  *
   674       C         65.45600000  *  157.18200000  * -53.05700000  *
   675       H         65.89600000  *  156.54700000  * -52.28500000  *
   676       C         65.37400000  *  158.60100000  * -52.48800000  *
   677       H         66.37900000  *  158.93500000  * -52.23200000  *
   678       H         64.98700000  *  159.26800000  * -53.26000000  *
   679       C         64.50900000  *  158.71500000  * -51.24800000  *
   680       C         63.24700000  *  159.33600000  * -51.31300000  *
   681       H         62.88900000  *  159.74500000  * -52.24800000  *
   682       C         62.44200000  *  159.42000000  * -50.16300000  *
   683       H         61.47100000  *  159.89200000  * -50.21900000  *
   684       C         62.89500000  *  158.88400000  * -48.94600000  *
   685       H         62.27500000  *  158.94400000  * -48.06200000  *
   686       C         64.15500000  *  158.26400000  * -48.87800000  *
   687       H         64.50100000  *  157.84600000  * -47.94200000  *
   688       C         64.96000000  *  158.17900000  * -50.02700000  *
   689       H         65.92500000  *  157.69400000  * -49.97500000  *
   690       C         64.06500000  *  156.62600000  * -53.39300000  *
   691       O         63.46600000  *  156.99500000  * -54.40600000  *
   692       N         63.53600000  *  155.77700000  * -52.51100000  *
   693       H         64.09600000  *  155.52900000  * -51.70400000  *
   694       C         62.13400000  *  155.35100000  * -52.48400000  *
   695       H         61.56500000  *  155.88000000  * -53.25100000  *
   696       C         62.01600000  *  153.83900000  * -52.73200000  *
   697       H         62.68700000  *  153.31700000  * -52.05200000  *
   698       H         60.99600000  *  153.54500000  * -52.48000000  *
   699       C         62.30000000  *  153.42000000  * -54.18800000  *
   700       H         62.09000000  *  154.25200000  * -54.86000000  *
   701       C         63.75100000  *  152.97700000  * -54.36900000  *
   702       H         63.96700000  *  152.14100000  * -53.70700000  *
   703       H         63.92200000  *  152.68000000  * -55.40300000  *
   704       H         64.42400000  *  153.79800000  * -54.12700000  *
   705       C         61.41000000  *  152.24600000  * -54.59800000  *
   706       H         60.36100000  *  152.51500000  * -54.47400000  *
   707       H         61.57900000  *  152.00300000  * -55.64600000  *
   708       H         61.62800000  *  151.37300000  * -53.98600000  *
   709       C         61.53700000  *  155.72300000  * -51.12600000  *
   710       O         62.23600000  *  155.73500000  * -50.11700000  *
   711       N         60.25600000  *  156.07200000  * -51.08500000  *
   712       H         59.73400000  *  156.08600000  * -51.95200000  *
   713       C         59.67500000  *  156.77200000  * -49.93700000  *
   714       H         60.40500000  *  157.50100000  * -49.58300000  *
   715       C         58.45600000  *  157.56700000  * -50.41800000  *
   716       H         57.66800000  *  156.87000000  * -50.70200000  *
   717       H         58.10200000  *  158.17900000  * -49.59000000  *
   718       C         58.72800000  *  158.47900000  * -51.59300000  *
   719       N         58.85800000  *  158.07300000  * -52.92600000  *
   720       C         59.10900000  *  159.19100000  * -53.62900000  *
   721       H         59.26200000  *  159.23000000  * -54.70300000  *
   722       N         59.14300000  *  160.25900000  * -52.81300000  *
   723       H         59.31000000  *  161.21600000  * -53.11100000  *
   724       C         58.90500000  *  159.83100000  * -51.52600000  *
   725       H         58.86400000  *  160.44000000  * -50.63100000  *
   726       C         59.35000000  *  155.88500000  * -48.71700000  *
   727       O         59.10700000  *  156.42800000  * -47.63900000  *
   728       N         59.35900000  *  154.55100000  * -48.85100000  *
   729       H         59.56900000  *  154.16400000  * -49.76100000  *
   730       C         59.01700000  *  153.60100000  * -47.77800000  *
   731       H         59.45100000  *  153.96900000  * -46.84600000  *
   732       C         57.48000000  *  153.58100000  * -47.62200000  *
   733       H         57.14800000  *  154.58900000  * -47.36900000  *
   734       H         57.01800000  *  153.30600000  * -48.57200000  *
   735       C         56.97700000  *  152.62200000  * -46.53200000  *
   736       H         56.82100000  *  151.63800000  * -46.97100000  *
   737       H         57.72800000  *  152.54100000  * -45.74900000  *
   738       C         55.68700000  *  153.09900000  * -45.87500000  *
   739       O         55.69400000  *  153.75100000  * -44.84400000  *
   740       N         54.53300000  *  152.79500000  * -46.43000000  *
   741       H         53.70400000  *  153.13200000  * -45.96400000  *
   742       H         54.49800000  *  152.28800000  * -47.29600000  *
   743       C         59.59000000  *  152.18600000  * -48.02600000  *
   744       O         59.67500000  *  151.74200000  * -49.17200000  *
   745       N         59.95600000  *  151.46300000  * -46.95600000  *
   746       H         59.87200000  *  151.88000000  * -46.04300000  *
   747       C         60.28500000  *  150.02700000  * -47.01100000  *
   748       H         60.58300000  *  149.80400000  * -48.03200000  *
   749       C         61.51800000  *  149.69700000  * -46.14100000  *
   750       H         61.86600000  *  148.70700000  * -46.43900000  *
   751       H         62.31000000  *  150.40400000  * -46.39100000  *
   752       C         61.32500000  *  149.67900000  * -44.61500000  *
   753       O         60.22800000  *  149.32200000  * -44.13800000  *
   754       O         62.30000000  *  149.98400000  * -43.89100000  *
   755       C         59.07500000  *  149.11200000  * -46.71700000  *
   756       O         58.03700000  *  149.55000000  * -46.20200000  *
   757       N         59.19100000  *  147.81900000  * -47.04800000  *
   758       H         60.03800000  *  147.50900000  * -47.52500000  *
   759       C         58.10100000  *  146.88000000  * -46.84100000  *
   760       H         57.21800000  *  147.32500000  * -47.29300000  *
   761       C         58.41200000  *  145.57700000  * -47.59200000  *
   762       H         58.61300000  *  145.80400000  * -48.64400000  *
   763       H         59.28800000  *  145.12100000  * -47.15800000  *
   764       C         57.28700000  *  144.52700000  * -47.51900000  *
   765       H         57.05600000  *  144.28000000  * -46.48700000  *
   766       C         56.00700000  *  145.04400000  * -48.19600000  *
   767       H         56.23500000  *  145.37800000  * -49.20200000  *
   768       H         55.26800000  *  144.24500000  * -48.23100000  *
   769       H         55.59500000  *  145.87000000  * -47.62900000  *
   770       C         57.76800000  *  143.24900000  * -48.17500000  *
   771       H         58.61500000  *  142.85400000  * -47.62000000  *
   772       H         56.97300000  *  142.50400000  * -48.17100000  *
   773       H         58.06400000  *  143.44500000  * -49.20700000  *
   774       C         57.76400000  *  146.61300000  * -45.36900000  *
   775       O         56.60900000  *  146.37600000  * -45.03000000  *
   776       N         58.75700000  *  146.67700000  * -44.48800000  *
   777       H         59.64000000  *  147.08600000  * -44.79000000  *
   778       C         58.49100000  *  146.46700000  * -43.07300000  *
   779       H         57.97900000  *  145.55100000  * -42.87200000  *
   780       C         59.78200000  *  146.47800000  * -42.25400000  *
   781       H         60.44800000  *  145.70000000  * -42.62000000  *
   782       H         60.28600000  *  147.44000000  * -42.35600000  *
   783       C         59.49200000  *  146.22900000  * -40.76500000  *
   784       H         58.94200000  *  147.08300000  * -40.37400000  *
   785       H         58.87100000  *  145.33200000  * -40.67600000  *
   786       C         60.74500000  *  146.03800000  * -39.93500000  *
   787       H         61.36100000  *  145.25900000  * -40.37900000  *
   788       H         61.30800000  *  146.97100000  * -39.90700000  *
   789       C         60.37600000  *  145.60700000  * -38.51700000  *
   790       H         59.98500000  *  144.58900000  * -38.53700000  *
   791       H         61.27900000  *  145.61300000  * -37.90300000  *
   792       N         59.34600000  *  146.53100000  * -37.94700000  *
   793       H         58.44600000  *  146.48100000  * -38.44300000  *
   794       H         59.09000000  *  146.27800000  * -37.00400000  *
   795       H         59.61300000  *  147.50600000  * -37.97800000  *
   796       C         57.55800000  *  147.53800000  * -42.51200000  *
   797       O         56.61300000  *  147.23400000  * -41.78300000  *
   798       N         57.83200000  *  148.81200000  * -42.80400000  *
   799       H         58.65800000  *  149.00800000  * -43.37400000  *
   800       C         57.00900000  *  149.93100000  * -42.33100000  *
   801       H         56.89900000  *  149.84900000  * -41.24800000  *
   802       C         57.71800000  *  151.25900000  * -42.64200000  *
   803       H         58.73600000  *  151.21300000  * -42.25000000  *
   804       H         57.76900000  *  151.40100000  * -43.72100000  *
   805       C         56.99900000  *  152.45200000  * -41.99200000  *
   806       H         56.00500000  *  152.55600000  * -42.42600000  *
   807       H         56.89200000  *  152.26500000  * -40.92200000  *
   808       C         57.78100000  *  153.75900000  * -42.19000000  *
   809       H         58.74800000  *  153.67600000  * -41.69100000  *
   810       H         57.94200000  *  153.93100000  * -43.25600000  *
   811       C         56.98800000  *  154.92800000  * -41.59200000  *
   812       H         56.02700000  *  154.99900000  * -42.11100000  *
   813       H         56.78300000  *  154.70900000  * -40.54000000  *
   814       N         57.72300000  *  156.21300000  * -41.70500000  *
   815       H         57.90300000  *  156.45100000  * -42.66900000  *
   816       H         57.19100000  *  156.96900000  * -41.29900000  *
   817       H         58.60800000  *  156.17200000  * -41.22100000  *
   818       C         55.60500000  *  149.84200000  * -42.92500000  *
   819       O         54.62700000  *  150.08700000  * -42.22600000  *
   820       N         55.49500000  *  149.42600000  * -44.18900000  *
   821       H         56.35000000  *  149.26300000  * -44.71300000  *
   822       C         54.20500000  *  149.26000000  * -44.85200000  *
   823       H         53.62600000  *  150.17500000  * -44.72500000  *
   824       C         54.41000000  *  148.98800000  * -46.34000000  *
   825       H         54.98900000  *  149.80200000  * -46.77700000  *
   826       H         55.00200000  *  148.07700000  * -46.45200000  *
   827       C         53.12600000  *  148.85300000  * -47.10800000  *
   828       C         52.23100000  *  149.92200000  * -47.18600000  *
   829       H         52.46300000  *  150.85600000  * -46.69900000  *
   830       C         51.01500000  *  149.79500000  * -47.88400000  *
   831       H         50.32500000  *  150.62800000  * -47.91800000  *
   832       C         50.69700000  *  148.60300000  * -48.50200000  *
   833       H         49.75200000  *  148.50200000  * -49.02000000  *
   834       C         51.58700000  *  147.52100000  * -48.43200000  *
   835       H         51.33500000  *  146.58300000  * -48.91200000  *
   836       C         52.79500000  *  147.65400000  * -47.73300000  *
   837       H         53.46700000  *  146.81000000  * -47.67200000  *
   838       C         53.37400000  *  148.12200000  * -44.22700000  *
   839       O         52.16900000  *  148.28300000  * -44.00900000  *
   840       N         54.01600000  *  146.98100000  * -43.96600000  *
   841       H         55.00900000  *  146.90600000  * -44.17900000  *
   842       C         53.33800000  *  145.83600000  * -43.34100000  *
   843       H         52.47600000  *  145.52800000  * -43.93400000  *
   844       C         54.29200000  *  144.65000000  * -43.17000000  *
   845       H         55.15800000  *  145.02700000  * -42.63600000  *
   846       H         53.80700000  *  143.89200000  * -42.54700000  *
   847       C         54.73100000  *  144.00400000  * -44.46100000  *
   848       H         53.84700000  *  143.61400000  * -44.95900000  *
   849       H         55.19200000  *  144.69400000  * -45.15000000  *
   850       S         55.79700000  *  142.58100000  * -44.15400000  *
   851       C         57.05400000  *  143.29200000  * -43.18800000  *
   852       H         56.67800000  *  143.65800000  * -42.23500000  *
   853       H         57.80700000  *  142.53400000  * -42.98200000  *
   854       H         57.44300000  *  144.07900000  * -43.80900000  *
   855       C         52.84400000  *  146.26000000  * -41.95900000  *
   856       O         51.68200000  *  146.03200000  * -41.61400000  *
   857       N         53.72600000  *  146.88400000  * -41.17900000  *
   858       H         54.70100000  *  146.95700000  * -41.45300000  *
   859       C         53.34300000  *  147.35100000  * -39.84600000  *
   860       H         53.03400000  *  146.49700000  * -39.23800000  *
   861       C         54.50500000  *  148.07700000  * -39.15700000  *
   862       H         54.94100000  *  148.81500000  * -39.83000000  *
   863       H         54.12400000  *  148.60600000  * -38.28400000  *
   864       C         55.58400000  *  147.11500000  * -38.68500000  *
   865       O         55.26200000  *  145.90900000  * -38.57600000  *
   866       O         56.73300000  *  147.55200000  * -38.41700000  *
   867       C         52.15000000  *  148.27900000  * -39.96300000  *
   868       O         51.20300000  *  148.18000000  * -39.18700000  *
   869       N         52.18300000  *  149.16200000  * -40.95500000  *
   870       H         53.01600000  *  149.23700000  * -41.51800000  *
   871       C         51.08600000  *  150.10000000  * -41.17300000  *
   872       H         50.93100000  *  150.67400000  * -40.25800000  *
   873       C         51.42800000  *  151.06800000  * -42.31500000  *
   874       H         51.45500000  *  150.53900000  * -43.26600000  *
   875       H         50.66000000  *  151.83800000  * -42.36800000  *
   876       H         52.39300000  *  151.53600000  * -42.12800000  *
   877       C         49.78900000  *  149.37000000  * -41.49900000  *
   878       O         48.71100000  *  149.83600000  * -41.15600000  *
   879       N         49.90500000  *  148.22900000  * -42.16400000  *
   880       H         50.83800000  *  147.88500000  * -42.38200000  *
   881       C         48.74000000  *  147.45400000  * -42.57500000  *
   882       H         47.85700000  *  148.08600000  * -42.62800000  *
   883       H         48.90600000  *  147.02300000  * -43.58600000  *
   884       H         48.52600000  *  146.61900000  * -41.88800000  *
   885       H         72.54500000  *  137.05800000  * -55.15200000  *
   886       C         72.38600000  *  137.90500000  * -54.47400000  *
   887       O         73.28300000  *  138.71900000  * -54.28600000  *
   888       N         71.20100000  *  138.01500000  * -53.89800000  *
   889       H         70.47300000  *  137.31400000  * -54.05700000  *
   890       C         70.96800000  *  139.10000000  * -52.94900000  *
   891       H         71.50000000  *  140.00600000  * -53.22900000  *
   892       C         69.47700000  *  139.40500000  * -52.82500000  *
   893       H         69.09300000  *  139.71900000  * -53.79200000  *
   894       H         68.93000000  *  138.50600000  * -52.53300000  *
   895       C         69.17800000  *  140.45400000  * -51.81200000  *
   896       N         69.23000000  *  140.42300000  * -50.45900000  *
   897       C         68.94700000  *  141.69100000  * -50.01400000  *
   898       H         68.96900000  *  142.01200000  * -48.98400000  *
   899       N         68.72400000  *  142.47200000  * -51.05500000  *
   900       H         68.47200000  *  143.44500000  * -51.00700000  *
   901       C         68.85400000  *  141.75000000  * -52.15500000  *
   902       H         68.77100000  *  142.12600000  * -53.16500000  *
   903       C         71.52100000  *  138.65700000  * -51.58300000  *
   904       O         72.28000000  *  139.38000000  * -50.94700000  *
   905       N         71.11400000  *  137.47100000  * -51.14500000  *
   906       H         70.37100000  *  137.01600000  * -51.66500000  *
   907       C         71.55500000  *  136.88000000  * -49.87700000  *
   908       H         71.18200000  *  135.84900000  * -49.87900000  *
   909       C         73.07600000  *  136.85300000  * -49.83700000  *
   910       H         73.53100000  *  137.83300000  * -49.86900000  *
   911       H         73.36600000  *  136.47900000  * -48.85100000  *
   912       C         73.64700000  *  135.85900000  * -50.81700000  *
   913       H         73.29800000  *  134.87100000  * -50.67200000  *
   914       H         73.21600000  *  136.10500000  * -51.78700000  *
   915       C         75.11700000  *  136.08400000  * -50.99900000  *
   916       H         75.61200000  *  135.95400000  * -50.03300000  *
   917       H         75.49500000  *  135.33200000  * -51.69500000  *
   918       N         75.35800000  *  137.42700000  * -51.50600000  *
   919       H         74.62100000  *  138.12700000  * -51.38200000  *
   920       C         76.54800000  *  137.85900000  * -51.89000000  *
   921       N         77.59300000  *  137.04400000  * -51.81500000  *
   922       H         77.44700000  *  136.21200000  * -51.26800000  *
   923       H         78.49900000  *  137.44300000  * -51.92100000  *
   924       N         76.69000000  *  139.09300000  * -52.35600000  *
   925       H         75.86000000  *  139.69200000  * -52.33800000  *
   926       H         77.56200000  *  139.47800000  * -52.67100000  *
   927       C         71.03700000  *  137.42400000  * -48.54200000  *
   928       O         71.18700000  *  136.76800000  * -47.50900000  *
   929       N         70.43700000  *  138.60400000  * -48.51600000  *
   930       H         70.32800000  *  139.16900000  * -49.34700000  *
   931       C         69.93700000  *  139.07600000  * -47.23100000  *
   932       H         69.76500000  *  138.24900000  * -46.54100000  *
   933       C         70.93500000  *  140.04200000  * -46.56200000  *
   934       H         71.90900000  *  139.56600000  * -46.50900000  *
   935       H         71.04400000  *  140.94300000  * -47.17900000  *
   936       C         70.51300000  *  140.42800000  * -45.14700000  *
   937       O         70.17200000  *  139.51500000  * -44.35500000  *
   938       O         70.51000000  *  141.64400000  * -44.82500000  *
   939       C         68.58700000  *  139.73400000  * -47.37800000  *
   940       O         68.35000000  *  140.81000000  * -46.83500000  *
   941       N         67.68700000  *  139.08300000  * -48.11000000  *
   942       H         67.94300000  *  138.20800000  * -48.54500000  *
   943       C         66.35900000  *  139.64900000  * -48.29900000  *
   944       H         66.47700000  *  140.66700000  * -48.65900000  *
   945       C         65.54600000  *  138.81300000  * -49.28800000  *
   946       H         65.58300000  *  137.78400000  * -48.94500000  *
   947       H         64.50600000  *  139.14000000  * -49.25500000  *
   948       C         66.02700000  *  138.85500000  * -50.73600000  *
   949       H         67.06400000  *  138.52800000  * -50.78200000  *
   950       C         65.17300000  *  137.91700000  * -51.58300000  *
   951       H         64.15900000  *  138.30500000  * -51.68800000  *
   952       H         65.63400000  *  137.80700000  * -52.55000000  *
   953       H         65.13400000  *  136.93500000  * -51.11000000  *
   954       C         65.92100000  *  140.27700000  * -51.26400000  *
   955       H         66.42000000  *  140.99600000  * -50.63300000  *
   956       H         66.44200000  *  140.27500000  * -52.20900000  *
   957       H         64.88200000  *  140.56100000  * -51.39700000  *
   958       C         65.59400000  *  139.73400000  * -46.98200000  *
   959       O         65.58600000  *  138.79200000  * -46.16600000  *
   960       N         64.95900000  *  140.85700000  * -46.74200000  *
   961       H         64.96700000  *  141.58800000  * -47.44000000  *
   962       C         64.17200000  *  141.06600000  * -45.54100000  *
   963       H         63.56300000  *  140.17400000  * -45.39700000  *
   964       C         65.05300000  *  141.23700000  * -44.28400000  *
   965       H         64.41900000  *  141.29800000  * -43.39900000  *
   966       H         65.65600000  *  140.33600000  * -44.16700000  *
   967       C         65.98500000  *  142.45600000  * -44.29200000  *
   968       H         66.39000000  *  142.60100000  * -45.29000000  *
   969       H         65.42600000  *  143.34500000  * -43.99900000  *
   970       C         67.14700000  *  142.20900000  * -43.32100000  *
   971       H         66.75400000  *  141.94100000  * -42.33800000  *
   972       H         67.73000000  *  141.36800000  * -43.70500000  *
   973       C         68.04900000  *  143.43900000  * -43.18300000  *
   974       H         68.13900000  *  143.92700000  * -44.15800000  *
   975       H         67.57000000  *  144.15000000  * -42.49900000  *
   976       N         69.39400000  *  143.04800000  * -42.68300000  *
   977       H         69.87500000  *  142.45800000  * -43.37500000  *
   978       H         69.96400000  *  143.86200000  * -42.49000000  *
   979       H         69.31600000  *  142.52300000  * -41.82100000  *
   980       C         63.26700000  *  142.23000000  * -45.83500000  *
   981       O         63.62600000  *  143.07400000  * -46.65600000  *
   982       N         62.11200000  *  142.30300000  * -45.18600000  *
   983       C         61.62600000  *  141.34600000  * -44.17100000  *
   984       H         62.10000000  *  141.53200000  * -43.20900000  *
   985       H         61.74500000  *  140.31100000  * -44.47600000  *
   986       C         60.16400000  *  141.66900000  * -44.09500000  *
   987       H         59.73700000  *  141.34900000  * -43.14300000  *
   988       H         59.63700000  *  141.20600000  * -44.93200000  *
   989       C         60.16000000  *  143.18900000  * -44.24800000  *
   990       H         60.51600000  *  143.64900000  * -43.32100000  *
   991       H         59.20200000  *  143.56500000  * -44.57400000  *
   992       C         61.14500000  *  143.38000000  * -45.40300000  *
   993       H         60.63400000  *  143.20500000  * -46.34500000  *
   994       C         61.77100000  *  144.77100000  * -45.44800000  *
   995       O         61.39200000  *  145.58400000  * -46.27300000  *
   996       N         62.72600000  *  145.09100000  * -44.55700000  *
   997       H         62.97200000  *  144.40400000  * -43.86000000  *
   998       C         63.44200000  *  146.39000000  * -44.53900000  *
   999       H         62.70900000  *  147.19400000  * -44.45100000  *
  1000       C         64.39500000  *  146.46600000  * -43.33300000  *
  1001       H         65.08300000  *  145.62100000  * -43.36900000  *
  1002       H         64.98700000  *  147.37900000  * -43.42000000  *
  1003       C         63.69200000  *  146.50100000  * -41.97000000  *
  1004       H         62.99100000  *  147.33600000  * -41.95800000  *
  1005       H         63.13600000  *  145.57700000  * -41.82100000  *
  1006       C         64.68900000  *  146.65200000  * -40.81900000  *
  1007       O         65.71600000  *  145.99000000  * -40.76000000  *
  1008       N         64.43100000  *  147.51300000  * -39.85900000  *
  1009       H         65.09800000  *  147.60200000  * -39.10700000  *
  1010       H         63.61300000  *  148.10200000  * -39.89400000  *
  1011       C         64.27800000  *  146.67500000  * -45.80500000  *
  1012       O         64.48600000  *  147.82900000  * -46.17100000  *
  1013       N         64.75600000  *  145.62500000  * -46.47600000  *
  1014       H         64.46400000  *  144.70600000  * -46.17600000  *
  1015       C         65.53600000  *  145.68600000  * -47.71300000  *
  1016       H         66.10600000  *  146.61800000  * -47.74000000  *
  1017       C         66.54100000  *  144.50500000  * -47.74200000  *
  1018       H         66.02500000  *  143.57600000  * -47.51500000  *
  1019       H         66.94500000  *  144.40600000  * -48.74800000  *
  1020       C         67.74200000  *  144.65800000  * -46.81700000  *
  1021       O         68.00800000  *  145.70600000  * -46.25500000  *
  1022       N         68.52400000  *  143.62000000  * -46.62100000  *
  1023       H         69.37000000  *  143.74700000  * -46.09100000  *
  1024       H         68.28800000  *  142.68100000  * -46.92900000  *
  1025       C         64.63400000  *  145.70500000  * -48.96600000  *
  1026       O         65.15800000  *  145.61800000  * -50.07400000  *
  1027       N         63.30000000  *  145.80300000  * -48.83400000  *
  1028       H         62.89500000  *  145.87300000  * -47.90900000  *
  1029       C         62.40600000  *  145.84500000  * -49.97900000  *
  1030       H         62.94700000  *  145.74800000  * -50.91900000  *
  1031       C         61.36900000  *  144.72100000  * -49.88900000  *
  1032       H         60.76900000  *  144.86100000  * -48.99200000  *
  1033       H         60.74400000  *  144.79800000  * -50.77200000  *
  1034       C         62.03600000  *  143.32400000  * -49.85900000  *
  1035       H         62.67100000  *  143.24000000  * -48.98800000  *
  1036       C         61.00200000  *  142.26000000  * -49.77100000  *
  1037       H         60.24600000  *  142.42800000  * -50.53400000  *
  1038       H         61.44700000  *  141.27100000  * -49.89000000  *
  1039       H         60.52000000  *  142.31900000  * -48.79800000  *
  1040       C         62.89500000  *  143.12600000  * -51.08400000  *
  1041       H         63.82900000  *  143.66800000  * -50.95600000  *
  1042       H         63.12900000  *  142.06900000  * -51.20900000  *
  1043       H         62.39300000  *  143.49200000  * -51.96600000  *
  1044       C         61.76300000  *  147.21800000  * -49.95200000  *
  1045       O         61.15000000  *  147.60200000  * -48.96600000  *
  1046       N         61.87800000  *  147.97700000  * -51.03300000  *
  1047       H         62.36800000  *  147.60500000  * -51.84100000  *
  1048       C         61.44100000  *  149.37100000  * -51.06100000  *
  1049       H         61.05500000  *  149.67200000  * -50.08900000  *
  1050       C         62.62400000  *  150.27400000  * -51.38800000  *
  1051       H         62.95300000  *  150.06700000  * -52.40800000  *
  1052       H         62.27300000  *  151.30100000  * -51.33200000  *
  1053       C         63.81800000  *  150.10100000  * -50.44000000  *
  1054       H         64.21800000  *  149.09300000  * -50.52800000  *
  1055       C         64.87900000  *  151.09400000  * -50.86700000  *
  1056       H         64.51700000  *  152.09900000  * -50.67600000  *
  1057       H         65.79400000  *  150.90000000  * -50.31200000  *
  1058       H         65.08300000  *  151.01100000  * -51.92500000  *
  1059       C         63.48200000  *  150.36700000  * -48.97600000  *
  1060       H         62.81700000  *  149.59000000  * -48.61300000  *
  1061       H         64.39100000  *  150.33100000  * -48.37900000  *
  1062       H         63.00400000  *  151.34000000  * -48.86500000  *
  1063       C         60.32200000  *  149.56200000  * -52.06500000  *
  1064       O         60.41800000  *  149.10300000  * -53.19100000  *
  1065       N         59.26800000  *  150.25600000  * -51.67700000  *
  1066       H         59.36500000  *  150.76300000  * -50.80000000  *
  1067       C         58.08300000  *  150.44700000  * -52.50800000  *
  1068       H         58.17300000  *  149.92400000  * -53.45700000  *
  1069       C         56.81900000  *  149.90600000  * -51.78600000  *
  1070       H         55.94300000  *  150.08700000  * -52.41500000  *
  1071       C         56.95000000  *  148.40400000  * -51.54300000  *
  1072       H         57.75300000  *  148.18300000  * -50.83300000  *
  1073       H         56.01300000  *  148.00400000  * -51.15200000  *
  1074       H         57.15800000  *  147.91500000  * -52.48900000  *
  1075       C         56.64700000  *  150.60600000  * -50.43300000  *
  1076       H         57.48200000  *  150.38000000  * -49.77500000  *
  1077       H         56.60500000  *  151.68300000  * -50.57600000  *
  1078       C         55.37000000  *  150.22200000  * -49.68600000  *
  1079       H         55.48900000  *  149.24800000  * -49.22200000  *
  1080       H         55.17000000  *  150.96500000  * -48.91000000  *
  1081       H         54.52900000  *  150.16800000  * -50.38500000  *
  1082       C         57.87200000  *  151.93000000  * -52.81700000  *
  1083       O         58.38200000  *  152.79400000  * -52.10000000  *
  1084       N         57.14900000  *  152.22000000  * -53.89700000  *
  1085       H         56.70500000  *  151.48200000  * -54.43300000  *
  1086       C         56.84100000  *  153.60200000  * -54.22700000  *
  1087       H         57.16800000  *  154.27800000  * -53.43100000  *
  1088       C         57.50400000  *  154.05300000  * -55.54100000  *
  1089       H         57.21800000  *  155.07000000  * -55.80500000  *
  1090       H         58.58200000  *  154.04400000  * -55.38800000  *
  1091       C         57.19300000  *  153.14600000  * -56.70100000  *
  1092       O         56.13500000  *  152.53500000  * -56.76400000  *
  1093       N         58.11500000  *  153.07200000  * -57.64100000  *
  1094       H         57.83300000  *  152.61700000  * -58.48600000  *
  1095       H         58.88600000  *  153.71500000  * -57.62100000  *
  1096       C         55.33100000  *  153.75800000  * -54.32100000  *
  1097       O         54.57600000  *  152.79900000  * -54.11400000  *
  1098       N         54.88500000  *  154.97100000  * -54.62100000  *
  1099       H         55.52100000  *  155.73600000  * -54.79200000  *
  1100       C         53.46400000  *  155.24700000  * -54.72300000  *
  1101       H         52.92700000  *  154.82600000  * -53.87200000  *
  1102       C         53.20900000  *  156.78000000  * -54.75500000  *
  1103       H         52.16900000  *  156.98000000  * -55.02600000  *
  1104       C         53.47800000  *  157.39700000  * -53.41000000  *
  1105       H         54.52100000  *  157.25500000  * -53.13000000  *
[...]
 1005  H   0.83012
 1006  C   1.06492   0.79683   0.73519   0.79720
 1007  O   1.87723   1.40221   1.58619   1.82781
 1008  N   1.52692   1.34562   1.41453   1.31336
 1009  H   0.65604
 1010  H   0.66524
 1011  C   1.08333   0.75659   0.78098   0.81534
 1012  O   1.88467   1.66115   1.31328   1.72988
 1013  N   1.55120   1.50704   1.20219   1.30241
 1014  H   0.66572
 1015  C   1.07244   0.94609   1.09149   0.82189
 1016  H   0.80466
 1017  C   1.07048   1.05370   1.09286   1.15782
 1018  H   0.83013
 1019  H   0.79704
 1020  C   1.05851   0.80050   0.76444   0.76509
 1021  O   1.87521   1.77526   1.42454   1.59432
 1022  N   1.53142   1.31539   1.20477   1.57109
 1023  H   0.66729
 1024  H   0.65445
 1025  C   1.08815   0.78512   0.71938   0.85299
 1026  O   1.87836   1.76653   1.61044   1.38243
 1027  N   1.54129   1.12578   1.66504   1.18342
 1028  H   0.65332
 1029  C   1.06992   0.96901   0.97990   0.97476
 1030  H   0.81165
 1031  C   1.06730   1.06433   0.99762   1.17279
 1032  H   0.83706
 1033  H   0.84832
 1034  C   1.04101   1.01184   0.94629   1.06206
 1035  H   0.85557
 1036  C   1.04919   1.12589   1.11848   1.17083
 1037  H   0.84502
 1038  H   0.84902
 1039  H   0.86547
 1040  C   1.05154   1.14151   1.17179   1.09924
 1041  H   0.84479
 1042  H   0.85768
 1043  H   0.84996
 1044  C   1.07617   0.75002   0.84343   0.75533
 1045  O   1.87200   1.53664   1.79660   1.44721
 1046  N   1.54555   1.55926   1.17131   1.24431
 1047  H   0.64531
 1048  C   1.06486   0.99025   0.82619   1.10012
 1049  H   0.81395
 1050  C   1.06486   1.02112   1.10686   1.12712
 1051  H   0.84576
 1052  H   0.84126
 1053  C   1.04811   0.96481   1.07591   0.96796
 1054  H   0.86532
 1055  C   1.05350   1.12164   1.13434   1.16530
 1056  H   0.84688
 1057  H   0.84749
 1058  H   0.85978
 1059  C   1.05450   1.17728   1.17533   1.04702
 1060  H   0.84000
 1061  H   0.85132
 1062  H   0.84809
 1063  C   1.07537   0.79808   0.74379   0.81732
 1064  O   1.86904   1.83035   1.62548   1.34126
 1065  N   1.54158   1.19078   1.47015   1.29542
 1066  H   0.64425
 1067  C   1.07602   0.88928   1.00583   1.04172
 1068  H   0.80965
 1069  C   1.06432   1.01515   0.99313   1.02003
 1070  H   0.85027
 1071  C   1.05461   1.18118   1.03395   1.17647
 1072  H   0.84319
 1073  H   0.84526
 1074  H   0.85336
 1075  C   1.05401   1.07000   1.12003   1.03125
 1076  H   0.84516
 1077  H   0.86115
 1078  C   1.05247   1.08919   1.15777   1.13194
 1079  H   0.84821
 1080  H   0.87735
 1081  H   0.84729
 1082  C   1.08652   0.74188   0.88839   0.74192
 1083  O   1.88680   1.56901   1.57706   1.55661
 1084  N   1.54300   1.50766   1.14361   1.33801
 1085  H   0.64293
 1086  C   1.06230   0.97260   0.88489   1.03683
 1087  H   0.80619
 1088  C   1.07272   1.18109   1.12907   1.02442
 1089  H   0.80864
 1090  H   0.80394
 1091  C   1.06065   0.76207   0.77086   0.82328
 1092  O   1.88012   1.35564   1.56911   1.83542
 1093  N   1.53401   1.29742   1.49467   1.27179
 1094  H   0.67174
 1095  H   0.66476
 1096  C   1.08292   0.88505   0.75983   0.71400
 1097  O   1.88787   1.65359   1.46797   1.58727
 1098  N   1.54015   1.14546   1.19743   1.67263
 1099  H   0.66327
 1100  C   1.08562   0.83686   1.05826   1.08309
 1101  H   0.80362
 1102  C   1.08430   0.99166   0.86678   0.88994
 1103  H   0.84693
 1104  C   1.05378   1.18346   1.18048   1.05416
 1105  H   0.84149
 1106  H   0.82395
 1107  H   0.82949
 1108  O   1.84873   1.59256   1.82306   1.34557
 1109  H   0.64212
 1110  C   1.07323   0.78904   0.75562   0.82395
 1111  O   1.87788   1.27983   1.68883   1.84863
 1112  N   1.53326   1.19323   1.53464   1.21092
 1113  H   0.66718
 1114  C   1.05711   1.15382   1.13341   0.89300
 1115  H   0.83550
 1116  H   0.83762
 1117  H   0.83545
 1118  H   0.83976
 1119  C   1.10505   0.75488   0.73539   0.91346
 1120  O   1.88315   1.71067   1.59667   1.48265
 1121  N   1.54488   1.42819   1.34571   1.20821
 1122  H   0.65360
 1123  C   1.08074   0.93104   1.08433   0.93137
 1124  H   0.80939
 1125  C   1.07313   1.07916   0.95381   0.98257
 1126  H   0.84399
 1127  C   1.05812   1.18708   1.08409   1.12928
 1128  H   0.84360
 1129  H   0.84849
 1130  H   0.85215
 1131  C   1.05414   1.07574   1.13452   1.01856
 1132  H   0.85376
 1133  H   0.85460
 1134  C   1.04916   1.14388   1.15099   1.09056
 1135  H   0.85005
 1136  H   0.85960
 1137  H   0.84940
 1138  C   1.07220   0.84173   0.73675   0.77772
 1139  O   1.87776   1.89039   1.52072   1.39081
 1140  N   1.54468   1.10289   1.52645   1.33532
 1141  H   0.63254
 1142  C   1.06991   0.84582   1.05427   1.03748
 1143  H   0.81833
 1144  C   1.06003   1.09231   1.04554   1.09636
 1145  H   0.83573
 1146  H   0.84697
 1147  C   1.05101   1.08520   1.04429   1.07720
 1148  H   0.85081
 1149  H   0.84443
 1150  C   1.05929   1.08192   1.05396   1.09851
 1151  H   0.84158
 1152  H   0.83203
 1153  C   1.07855   1.02179   0.99775   1.07367
 1154  H   0.81272
 1155  H   0.83412
 1156  N   1.46137   1.23196   1.23319   1.26035
 1157  H   0.68666
 1158  H   0.70063
 1159  H   0.68762
 1160  C   1.07845   0.77970   0.75025   0.82544
 1161  O   1.88108   1.77275   1.69317   1.29095
 1162  N   1.54480   1.32882   1.42535   1.23091
 1163  H   0.64029
 1164  C   1.07016   0.91818   0.95737   1.02926
 1165  H   0.83181
 1166  C   1.06274   1.10021   1.01961   1.13291
 1167  H   0.83521
 1168  H   0.84504
 1169  C   1.05368   1.07054   0.96092   0.96347
 1170  H   0.85949
 1171  C   1.06224   1.16612   1.13943   1.09234
 1172  H   0.85198
 1173  H   0.84921
 1174  H   0.85271
 1175  C   1.05741   1.18272   1.13698   1.08874
 1176  H   0.85340
 1177  H   0.84819
 1178  H   0.85436
 1179  C   1.08492   0.79153   0.79888   0.75876
 1180  O   1.88071   1.63512   1.59959   1.53911
 1181  N   1.54352   1.36645   1.43833   1.16009
 1182  H   0.64480
 1183  C   1.06692   0.91132   0.92968   1.04843
 1184  H   0.83153
 1185  C   1.05963   1.16494   1.08794   1.15073
 1186  H   0.82065
 1187  H   0.83346
 1188  H   0.82583
 1189  C   1.08839   0.78587   0.78629   0.74708
 1190  O   1.87152   1.83815   1.36113   1.60155
 1191  N   1.54593   1.17691   1.32160   1.49027
 1192  H   0.67149
 1193  C   1.07526   0.88730   1.07625   0.92803
 1194  H   0.81972
 1195  C   1.07787   1.14744   1.17008   1.01794
 1196  H   0.80829
 1197  H   0.83455
 1198  C   1.07087   0.73177   0.73725   0.69498
 1199  O   1.88741   1.66782   1.47651   1.69099
 1200  O   1.87090   1.80290   1.44384   1.76289
 1201  C   1.08873   0.82083   0.79583   0.75209
 1202  O   1.88752   1.28457   1.79547   1.56957
 1203  N   1.56650   1.29198   1.17057   1.53912
 1204  H   0.68202
 1205  C   1.07980   1.02125   0.91669   0.95316
 1206  H   0.83942
 1207  C   1.05578   1.07766   1.20322   0.96294
 1208  H   0.81322
 1209  H   0.81941
 1210  C   1.07471   0.97384   0.97735   0.96997
 1211  C   1.09011   1.04121   1.04114   1.01387
 1212  H   0.83943
 1213  C   1.08869   0.98527   1.06191   1.01036
 1214  H   0.84201
 1215  C   1.08749   1.05965   0.99129   1.03178
 1216  H   0.84748
 1217  C   1.08929   1.03682   1.03653   0.98980
 1218  H   0.83208
 1219  C   1.08710   0.98683   1.06379   1.02402
 1220  H   0.83974
 1221  C   1.08902   0.80301   0.77372   0.76404
 1222  O   1.88524   1.44413   1.55946   1.71434
 1223  N   1.53938   1.41500   1.43708   1.13585
 1224  H   0.68381
 1225  C   1.06849   0.98839   1.06776   0.98164
 1226  H   0.81264
 1227  H   0.80703
 1228  C   1.07943   0.82864   0.77918   0.70638
 1229  O   1.87680   1.84121   1.32496   1.61289
 1230  N   1.55758   1.29774   1.23302   1.44612
 1231  H   0.67339
 1232  C   1.07743   0.89839   1.03245   0.96731
 1233  H   0.83426
 1234  C   1.06797   1.11255   0.95122   1.17586
 1235  H   0.83695
 1236  H   0.82969
 1237  C   1.05168   1.03255   0.96083   1.00979
 1238  H   0.86363
 1239  C   1.05599   1.16845   1.06729   1.16405
 1240  H   0.85779
 1241  H   0.84390
 1242  H   0.85585
 1243  C   1.05569   1.17146   1.18875   1.04725
 1244  H   0.84185
 1245  H   0.84108
 1246  H   0.85776
 1247  C   1.09506   0.85726   0.76512   0.72442
 1248  O   1.88112   1.32535   1.78578   1.59445
 1249  N   1.58222   1.28173   1.23386   1.52148
 1250  H   0.66058
 1251  C   1.06830   0.96394   0.99695   0.95492
 1252  H   0.83639
 1253  C   1.05863   1.14003   1.09747   1.17426
 1254  H   0.84411
 1255  H   0.81062
 1256  H   0.81022
 1257  C   1.07596   0.83435   0.75182   0.78129
 1258  O   1.88389   1.50004   1.59979   1.64957
 1259  N   1.54297   1.31121   1.51242   1.14420
 1260  H   0.67598
 1261  C   1.06248   0.92444   1.14576   1.10583
 1262  H   0.82650
 1263  H   0.82976
 1264  H   0.83906
 1265  H   0.84168
 1266  C   1.10462   0.72497   0.79424   0.87714
 1267  O   1.88383   1.53323   1.36205   1.88323
 1268  N   1.54272   1.48723   1.35111   1.14839
 1269  H   0.67720
 1270  C   1.07285   1.11766   0.96742   0.82219
 1271  H   0.80331
 1272  C   1.05780   1.09099   1.02711   1.14952
 1273  H   0.83574
 1274  H   0.82234
 1275  C   1.06414   0.97706   0.94930   0.96752
 1276  C   1.08266   1.01972   0.99352   1.05800
 1277  H   0.84037
 1278  C   1.08211   1.04747   1.02796   0.99893
 1279  H   0.84569
 1280  C   1.08112   1.00726   1.05571   1.02586
 1281  H   0.85035
 1282  C   1.08045   1.02502   1.00378   1.05543
 1283  H   0.85486
 1284  C   1.08318   1.05800   1.02550   0.99542
 1285  H   0.84004
 1286  C   1.08052   0.76600   0.78602   0.79867
 1287  O   1.88388   1.53912   1.68028   1.53358
 1288  N   1.53676   1.17669   1.34795   1.43213
 1289  H   0.67168
 1290  C   1.05820   1.14203   0.97721   0.99759
 1291  H   0.81379
 1292  H   0.78693
 1293  C   1.07323   0.78226   0.75098   0.80210
 1294  O   1.87185   1.55569   1.39907   1.84085
 1295  N   1.53474   1.40640   1.37165   1.17593
 1296  H   0.64827
 1297  C   1.07483   1.00346   1.20102   0.87815
 1298  H   0.80886
 1299  H   0.79341
 1300  C   1.08126   0.77436   0.74565   0.80723
 1301  O   1.88287   1.52191   1.53293   1.73136
 1302  N   1.56519   1.44477   1.16696   1.26722
 1303  C   1.07054   1.06962   0.86742   1.05580
 1304  H   0.83626
 1305  H   0.83923
 1306  C   1.05730   1.04604   1.13931   1.05923
 1307  H   0.84650
 1308  H   0.80429
 1309  C   1.06102   1.08253   0.98329   1.17204
 1310  H   0.83521
 1311  H   0.81974
 1312  C   1.07350   1.05223   1.00114   0.86768
 1313  H   0.81346
 1314  C   1.08826   0.76339   0.76826   0.82860
 1315  O   1.88393   1.42710   1.43560   1.88332
 1316  N   1.54314   1.40353   1.48385   1.11753
 1317  H   0.64356
 1318  C   1.08218   1.04967   1.11407   0.89131
 1319  H   0.80104
 1320  H   0.78758
 1321  C   1.08825   0.82546   0.73029   0.77833
 1322  O   1.88492   1.70324   1.72965   1.32954
 1323  N   1.55105   1.23221   1.41124   1.34481
 1324  H   0.68803
 1325  C   1.07566   0.86030   1.06407   0.97846
 1326  H   0.82197
 1327  C   1.05959   1.16885   1.07555   0.97652
 1328  H   0.83481
 1329  H   0.83900
 1330  C   1.05817   1.13850   1.07479   1.02372
 1331  H   0.82468
 1332  H   0.87157
 1333  C   1.06375   1.08743   1.09997   0.78143
 1334  H   0.85039
 1335  H   0.81932
 1336  N   1.53281   1.62696   1.28991   1.09339
 1337  H   0.64879
 1338  C   0.97598   0.83627   0.80291   0.79449
 1339  N   1.50145   1.56338   1.25848   1.24812
 1340  H   0.67460
 1341  H   0.62641
 1342  N   1.50406   1.55700   1.35351   1.14123
 1343  H   0.64461
 1344  H   0.63727
 1345  C   1.08268   0.75718   0.77365   0.84399
 1346  O   1.88770   1.48032   1.64673   1.56771
 1347  N   1.54267   1.54564   1.19732   1.23954
 1348  H   0.67295
 1349  C   1.08978   1.00037   1.01014   0.92074
 1350  H   0.80147
 1351  C   1.08610   0.93206   0.92678   0.87736
 1352  H   0.85153
 1353  C   1.05854   1.09727   1.12852   1.20567
 1354  H   0.82429
 1355  H   0.83340
 1356  H   0.83066
 1357  O   1.84301   1.58287   1.64069   1.56941
 1358  H   0.62625
 1359  C   1.07898   0.81305   0.79129   0.76258
 1360  O   1.88737   1.53740   1.79136   1.37013
 1361  N   1.55258   1.32717   1.29598   1.37694
 1362  H   0.65266
 1363  C   1.07399   0.98861   0.92718   0.99327
 1364  H   0.81752
 1365  C   1.05786   1.09553   1.06842   1.08738
 1366  H   0.84117
 1367  H   0.82625
 1368  C   1.06141   0.97214   0.97475   1.05785
 1369  C   1.08276   0.97250   1.07894   0.99057
 1370  H   0.84435
 1371  C   1.08089   1.07851   0.99492   1.02030
 1372  H   0.81240
 1373  C   1.06626   0.82687   0.89547   0.91171
 1374  O   1.84125   1.46895   1.54106   1.69641
 1375  H   0.63550
 1376  C   1.07395   0.99071   1.09216   1.06984
 1377  H   0.84768
 1378  C   1.08173   1.06408   0.99906   0.99530
 1379  H   0.85875
 1380  C   1.08208   0.77637   0.73406   0.82114
 1381  O   1.88475   1.39059   1.55616   1.82931
 1382  N   1.55035   1.20055   1.60171   1.14810
 1383  H   0.66098
 1384  C   1.08717   1.11705   1.03443   0.83758
 1385  H   0.82145
 1386  C   1.08251   0.83220   0.89095   1.00016
 1387  H   0.86865
 1388  C   1.05719   1.09877   1.14107   1.18957
 1389  H   0.83085
 1390  H   0.84602
 1391  H   0.84158
 1392  O   1.84702   1.32391   1.76637   1.66682
 1393  H   0.61638
 1394  C   1.08198   0.82831   0.76388   0.79204
 1395  O   1.88735   1.29175   1.70647   1.67689
 1396  N   1.54290   1.22795   1.27112   1.47583
 1397  H   0.64951
 1398  C   1.07067   0.98427   1.04037   1.07610
 1399  H   0.84414
 1400  H   0.80899
 1401  C   1.07018   0.85069   0.72030   0.75161
 1402  O   1.88500   1.70076   1.45744   1.55919
 1403  N   1.55349   1.14760   1.51375   1.33245
 1404  H   0.68018
 1405  C   1.07073   0.82915   0.98742   1.12937
 1406  H   0.81410
 1407  C   1.05314   1.16367   0.98905   1.05116
 1408  H   0.84014
 1409  H   0.83567
 1410  C   1.05982   1.20527   1.01185   1.13897
 1411  H   0.84382
 1412  H   0.82621
 1413  C   1.06643   0.72249   0.72004   0.72870
 1414  O   1.88758   1.46973   1.82229   1.63747
 1415  O   1.88485   1.52009   1.58621   1.81539
 1416  C   1.08686   0.77103   0.86275   0.75452
 1417  O   1.88731   1.64850   1.65321   1.40989
 1418  N   1.54578   1.31032   1.19185   1.47842
 1419  H   0.65301
 1420  C   1.07215   1.06265   0.88135   1.00766
 1421  H   0.84396
 1422  C   1.05446   1.01864   1.03212   0.97079
 1423  H   0.83591
 1424  C   1.05593   1.17742   1.04896   1.19323
 1425  H   0.84561
 1426  H   0.83593
 1427  H   0.83788
 1428  C   1.05459   1.18126   1.16765   1.06159
 1429  H   0.84056
 1430  H   0.83997
 1431  H   0.85220
 1432  C   1.07557   0.77100   0.73157   0.84201
 1433  O   1.88366   1.36350   1.63763   1.76938
 1434  N   1.53829   1.27322   1.47285   1.21111
 1435  H   0.66903
 1436  C   1.07705   1.00701   1.05451   0.86789
 1437  H   0.82263
 1438  C   1.06062   1.02682   1.01604   0.97686
 1439  H   0.84065
 1440  C   1.05419   1.18410   1.09816   1.12138
 1441  H   0.84115
 1442  H   0.84091
 1443  H   0.85077
 1444  C   1.05741   1.18953   1.16692   1.05254
 1445  H   0.84568
 1446  H   0.83587
 1447  H   0.83884
 1448  C   1.08141   0.80665   0.78620   0.75105
 1449  O   1.88310   1.81181   1.47389   1.46081
 1450  N   1.53597   1.23669   1.43118   1.31649
 1451  H   0.66407
 1452  C   1.07958   0.90444   0.96829   1.14817
 1453  H   0.80543
 1454  C   1.07971   0.93500   0.82440   0.98327
 1455  H   0.86604
 1456  C   1.05747   1.09523   1.13593   1.19616
 1457  H   0.82508
 1458  H   0.82215
 1459  H   0.84137
 1460  O   1.84756   1.47781   1.49389   1.78190
 1461  H   0.64867
 1462  C   1.07072   0.75399   0.82648   0.79813
 1463  O   1.88061   1.50663   1.88251   1.36381
 1464  N   1.53717   1.55063   1.12176   1.29445
 1465  H   0.65726
 1466  C   1.05406   1.16767   0.87322   1.13556
 1467  H   0.83028
 1468  H   0.83726
 1469  H   0.85143
 1470  H   0.82727
 1471  C   1.10847   0.72193   0.77568   0.90300
 1472  O   1.87917   1.50037   1.39726   1.89103
 1473  N   1.54804   1.50777   1.35865   1.13678
 1474  H   0.67043
 1475  C   1.07820   1.08298   1.04083   0.80197
 1476  H   0.80376
 1477  C   1.05902   1.13432   0.99959   1.10165
 1478  H   0.81850
 1479  H   0.82224
 1480  C   1.06603   0.97575   0.99270   1.00503
 1481  C   1.08225   0.99082   1.02508   1.00494
 1482  H   0.83773
 1483  C   1.07635   1.10499   1.04973   1.06616
 1484  H   0.82057
 1485  C   1.07250   0.88659   0.88221   0.88001
 1486  O   1.83868   1.35495   1.61296   1.73278
 1487  H   0.61923
 1488  C   1.07856   0.98841   1.09957   1.09651
 1489  H   0.82116
 1490  C   1.08812   1.07868   0.97893   0.96921
 1491  H   0.83490
 1492  C   1.08089   0.79997   0.76893   0.79197
 1493  O   1.88630   1.81389   1.69948   1.28045
 1494  N   1.53472   1.25585   1.50892   1.18460
 1495  H   0.67086
 1496  C   1.06144   0.92038   1.08956   1.16675
 1497  H   0.83444
 1498  H   0.82973
 1499  H   0.83860
 1500  H   0.82503
 1501  C   1.10798   0.78631   0.88384   0.71627
 1502  O   1.88013   1.43035   1.87070   1.50912
 1503  N   1.55064   1.37513   1.18539   1.44523
 1504  H   0.64433
 1505  C   1.07867   0.96561   0.86313   1.12893
 1506  H   0.81503
 1507  C   1.05975   0.97995   0.99671   1.07641
 1508  H   0.84644
 1509  C   1.05205   1.15823   1.06255   1.17603
 1510  H   0.84451
 1511  H   0.84454
 1512  H   0.84177
 1513  C   1.04779   0.99988   1.12972   1.08505
 1514  H   0.86662
 1515  H   0.85359
 1516  C   1.04900   1.11603   1.12962   1.14936
 1517  H   0.85855
 1518  H   0.85745
 1519  H   0.84127
 1520  C   1.07241   0.85967   0.73790   0.75016
 1521  O   1.87626   1.57618   1.55613   1.67372
 1522  N   1.54215   1.18490   1.41749   1.37460
 1523  H   0.66208
 1524  C   1.07134   0.87899   1.16323   1.10823
 1525  H   0.84317
 1526  H   0.83236
 1527  H   0.83428
 1528  H   0.82780
 1529  C   1.10753   0.84812   0.73316   0.82092
 1530  O   1.88535   1.81633   1.62623   1.36654
 1531  N   1.53780   1.25350   1.40317   1.30539
 1532  H   0.64781
 1533  C   1.05913   0.89160   1.04058   1.02423
 1534  H   0.81943
 1535  C   1.06065   1.03220   1.11478   1.11474
 1536  H   0.82477
 1537  H   0.84733
 1538  C   1.04442   0.99008   0.96324   1.05962
 1539  H   0.88050
 1540  C   1.05454   1.16291   1.06807   1.18076
 1541  H   0.83843
 1542  H   0.84761
 1543  H   0.85376
 1544  C   1.05256   1.12368   1.17251   1.10850
 1545  H   0.85760
 1546  H   0.84697
 1547  H   0.84127
 1548  C   1.07862   0.72932   0.86473   0.77479
 1549  O   1.88185   1.57587   1.45147   1.73529
 1550  N   1.54004   1.57287   1.21261   1.19373
 1551  H   0.66102
 1552  C   1.07183   1.01970   0.93490   0.96136
 1553  H   0.81163
 1554  C   1.05667   1.17061   1.07926   0.99198
 1555  H   0.82415
 1556  H   0.82666
 1557  C   1.05683   1.13000   1.08802   1.03629
 1558  H   0.85338
 1559  H   0.82398
 1560  C   1.06364   1.15816   0.94497   0.90201
 1561  H   0.81611
 1562  H   0.83565
 1563  N   1.52413   1.16137   1.42469   1.39822
 1564  H   0.63965
 1565  C   0.99143   0.79136   0.81241   0.81847
 1566  N   1.51722   1.11652   1.46803   1.48662
 1567  H   0.65570
 1568  H   0.63932
 1569  N   1.50865   1.25118   1.39995   1.41135
 1570  H   0.64192
 1571  H   0.64057
 1572  C   1.08183   0.87210   0.77159   0.74438
 1573  O   1.88742   1.60873   1.60009   1.52812
 1574  N   1.53974   1.17468   1.27138   1.51544
 1575  H   0.65699
 1576  C   1.07439   0.85666   1.08582   1.03912
 1577  H   0.82209
 1578  C   1.06138   1.16454   1.09812   0.98336
 1579  H   0.84191
 1580  H   0.83808
 1581  C   1.04766   1.08162   0.96040   0.94845
 1582  H   0.86918
 1583  C   1.05590   1.17130   1.16288   1.07745
 1584  H   0.85485
 1585  H   0.86115
 1586  H   0.84668
 1587  C   1.05684   1.15796   1.09205   1.15810
 1588  H   0.85104
 1589  H   0.86073
 1590  H   0.84548
 1591  C   1.08301   0.71476   0.76197   0.70282
 1592  O   1.88398   1.46793   1.86987   1.62375
 1593  O   1.88767   1.54678   1.59371   1.80259

 **********************
 *                    *
 * JOB ENDED NORMALLY *
 *                    *
 **********************



 TOTAL JOB TIME:            39.63 SECONDS

 == MOPAC DONE ==
