 *******************************************************************************
 **                                                                           **
 **                              MOPAC v23.2.2                                **
 **                                                                           **
 *******************************************************************************
 **          Digital Object Identifier (DOI): 10.5281/zenodo.6511958          **
 **    Visit the DOI location for information on how to cite this program.    **
 *******************************************************************************

                              PM7 CALCULATION RESULTS

 *******************************************************************************
 *  CALCULATION DONE: (MAX THREADS = 12)             Tue Jan 27 15:57:07 2026  *
 *  PM7        - The PM7 Hamiltonian to be used
 *  MOZYME     - USE LOCALIZED M.O.s IN SOLVING THE SCF EQUATIONS
 *
 *
 *
 *                 CHARGE ON SYSTEM = +2
 *
 *
 *
 *  EPS=78.4   - USE ANDREAS KLAMT'S COSMO IMPLICIT SOLVATION MODEL
 *  1SCF       - DO 1 SCF AND THEN STOP 
 *  T=         - A TIME OF 172800.0 SECONDS REQUESTED
 *  DUMP=N     - RESTART FILE WRITTEN EVERY 7200.0 SECONDS REQUESTED
 *******************************************************************************
PM7 1SCF MOZYME CHARGE=2 EPS=78.4


   ATOM   CHEMICAL          X               Y               Z
  NUMBER   SYMBOL      (ANGSTROMS)     (ANGSTROMS)     (ANGSTROMS)

     1       H         71.69100000  *  165.23700000  * -45.36000000  *
     2       C         70.72700000  *  165.64400000  * -45.02500000  *
     3       O         70.67100000  *  166.69300000  * -44.40000000  *
     4       N         69.64800000  *  164.94600000  * -45.35400000  *
     5       H         69.74300000  *  164.08600000  * -45.86500000  *
     6       C         68.31800000  *  165.37700000  * -44.95100000  *
     7       H         68.30400000  *  166.44500000  * -44.75000000  *
     8       C         67.27900000  *  165.08100000  * -46.05800000  *
     9       H         67.27200000  *  164.02200000  * -46.29800000  *
    10       C         65.89200000  *  165.46600000  * -45.59200000  *
    11       H         65.46400000  *  166.22900000  * -46.24500000  *
    12       H         65.23700000  *  164.60600000  * -45.62700000  *
    13       H         65.87600000  *  165.89500000  * -44.58400000  *
    14       C         67.63700000  *  165.85600000  * -47.31700000  *
    15       H         68.59400000  *  165.52900000  * -47.70800000  *
    16       H         66.87900000  *  165.66900000  * -48.07700000  *
    17       H         67.68800000  *  166.92100000  * -47.10100000  *
    18       C         67.91500000  *  164.66400000  * -43.65700000  *
    19       O         67.55300000  *  165.30600000  * -42.67600000  *
    20       N         67.98400000  *  163.33800000  * -43.65800000  *
    21       H         68.28400000  *  162.85200000  * -44.48600000  *
    22       C         67.62300000  *  162.54400000  * -42.48700000  *
    23       H         67.90600000  *  163.07600000  * -41.58100000  *
    24       C         66.12800000  *  162.23500000  * -42.45900000  *
    25       H         65.92600000  *  161.47400000  * -43.20900000  *
    26       H         65.88500000  *  161.80700000  * -41.48800000  *
    27       C         65.21300000  *  163.39800000  * -42.74000000  *
    28       H         65.33100000  *  164.15700000  * -41.96400000  *
    29       H         65.45900000  *  163.81400000  * -43.69700000  *
    30       C         63.76600000  *  162.97200000  * -42.82400000  *
    31       O         63.44700000  *  162.11400000  * -43.67900000  *
    32       O         62.94800000  *  163.49400000  * -42.03400000  *
    33       C         68.34700000  *  161.22200000  * -42.57700000  *
    34       O         68.73000000  *  160.78800000  * -43.66100000  *
    35       N         68.52400000  *  160.57500000  * -41.43500000  *
    36       H         68.03000000  *  160.89100000  * -40.60600000  *
    37       C         69.17300000  *  159.28200000  * -41.42100000  *
    38       H         69.95100000  *  159.22100000  * -42.17800000  *
    39       C         69.75600000  *  159.01000000  * -40.03200000  *
    40       H         70.21900000  *  159.94300000  * -39.71800000  *
    41       H         68.96300000  *  158.79100000  * -39.31600000  *
    42       C         70.79800000  *  157.89600000  * -39.98300000  *
    43       H         70.31100000  *  156.94100000  * -40.17400000  *
    44       H         71.53800000  *  158.07300000  * -40.76900000  *
    45       C         71.50100000  *  157.83200000  * -38.61800000  *
    46       H         70.74900000  *  157.59000000  * -37.86000000  *
    47       H         72.23100000  *  157.01800000  * -38.63800000  *
    48       C         72.18600000  *  159.16200000  * -38.26900000  *
    49       H         72.83200000  *  159.42500000  * -39.10900000  *
    50       H         71.41200000  *  159.93100000  * -38.15600000  *
    51       N         73.00000000  *  159.10500000  * -37.02500000  *
    52       H         73.70000000  *  158.37000000  * -37.07400000  *
    53       H         73.43800000  *  159.98800000  * -36.79300000  *
    54       H         72.39100000  *  158.85400000  * -36.25100000  *
    55       C         68.06200000  *  158.28700000  * -41.74800000  *
    56       O         67.16300000  *  158.08100000  * -40.94600000  *
    57       N         68.05400000  *  157.71000000  * -42.95400000  *
    58       H         68.86400000  *  157.85100000  * -43.53900000  *
    59       C         67.04100000  *  156.72500000  * -43.39200000  *
    60       H         66.06200000  *  157.20600000  * -43.38200000  *
    61       C         67.31900000  *  156.23200000  * -44.83400000  *
    62       H         68.39600000  *  156.12800000  * -44.96300000  *
    63       C         66.67500000  *  154.87400000  * -45.15800000  *
    64       H         65.59700000  *  154.92100000  * -45.00100000  *
    65       H         66.87400000  *  154.61800000  * -46.19100000  *
    66       H         67.10100000  *  154.07500000  * -44.55300000  *
    67       C         66.80300000  *  157.28500000  * -45.82600000  *
    68       H         65.71200000  *  157.30200000  * -45.80900000  *
    69       H         67.15200000  *  158.25000000  * -45.47800000  *
    70       C         67.27700000  *  157.08700000  * -47.27400000  *
    71       H         66.81500000  *  156.20700000  * -47.71600000  *
    72       H         66.99000000  *  157.95100000  * -47.87000000  *
    73       H         68.35900000  *  156.98300000  * -47.30500000  *
    74       C         66.95000000  *  155.54800000  * -42.42100000  *
    75       O         65.85900000  *  155.18000000  * -41.98100000  *
    76       N         68.09700000  *  154.93800000  * -42.12400000  *
    77       H         68.96300000  *  155.31200000  * -42.49400000  *
    78       C         68.14200000  *  153.65600000  * -41.44000000  *
    79       H         67.44800000  *  153.66900000  * -40.59900000  *
    80       H         67.83300000  *  152.87000000  * -42.13000000  *
    81       C         69.53000000  *  153.31200000  * -40.92800000  *
    82       O         70.55100000  *  153.59300000  * -41.56100000  *
    83       N         69.54300000  *  152.65900000  * -39.77400000  *
    84       H         68.65800000  *  152.47100000  * -39.32500000  *
    85       C         70.72800000  *  152.03400000  * -39.20700000  *
    86       H         71.58300000  *  152.67500000  * -39.41600000  *
    87       C         70.55600000  *  151.92100000  * -37.68200000  *
    88       H         69.66200000  *  151.33900000  * -37.45700000  *
    89       H         71.42400000  *  151.41200000  * -37.27600000  *
    90       C         70.46300000  *  153.30300000  * -37.01100000  *
    91       H         71.33900000  *  153.88800000  * -37.30300000  *
    92       H         69.57700000  *  153.82600000  * -37.37600000  *
    93       C         70.38600000  *  153.21000000  * -35.47800000  *
    94       O         69.55500000  *  152.43700000  * -34.94600000  *
    95       O         71.13000000  *  153.94600000  * -34.79000000  *
    96       C         70.94700000  *  150.68300000  * -39.91500000  *
    97       O         70.17400000  *  149.74000000  * -39.72600000  *
    98       N         71.90300000  *  150.64200000  * -40.85100000  *
    99       H         72.54600000  *  151.42000000  * -40.92400000  *
   100       C         71.93000000  *  149.65800000  * -41.93900000  *
   101       H         70.90700000  *  149.38900000  * -42.20400000  *
   102       H         72.37100000  *  150.14300000  * -42.81000000  *
   103       C         72.70400000  *  148.36000000  * -41.67700000  *
   104       O         73.07500000  *  148.01600000  * -40.55700000  *
   105       N         72.95500000  *  147.62400000  * -42.76100000  *
   106       H         72.54900000  *  147.92000000  * -43.64000000  *
   107       C         73.68200000  *  146.33700000  * -42.79900000  *
   108       H         73.45300000  *  145.76800000  * -41.89800000  *
   109       C         73.20900000  *  145.52100000  * -44.01200000  *
   110       H         73.90300000  *  144.70400000  * -44.20800000  *
   111       C         71.82300000  *  144.94000000  * -43.76100000  *
   112       H         71.09700000  *  145.74200000  * -43.61900000  *
   113       H         71.53200000  *  144.32800000  * -44.61400000  *
   114       H         71.86900000  *  144.31300000  * -42.87100000  *
   115       O         73.13400000  *  146.36200000  * -45.14000000  *
   116       H         72.73800000  *  145.83400000  * -45.87500000  *
   117       C         75.20600000  *  146.46200000  * -42.87100000  *
   118       O         75.89500000  *  145.60300000  * -42.32900000  *
   119       N         75.72400000  *  147.52900000  * -43.49400000  *
   120       H         75.06300000  *  148.13800000  * -43.94900000  *
   121       C         77.16200000  *  147.76500000  * -43.74900000  *
   122       H         77.76000000  *  147.07900000  * -43.14600000  *
   123       C         77.46400000  *  147.48100000  * -45.23300000  *
   124       H         76.83500000  *  148.11300000  * -45.85900000  *
   125       H         78.50100000  *  147.74700000  * -45.44200000  *
   126       C         77.29200000  *  146.03500000  * -45.63900000  *
   127       C         78.33000000  *  145.12700000  * -45.36900000  *
   128       H         79.24500000  *  145.47000000  * -44.90000000  *
   129       C         78.17600000  *  143.77100000  * -45.69000000  *
   130       H         78.97800000  *  143.08700000  * -45.46800000  *
   131       C         76.97500000  *  143.31300000  * -46.27500000  *
   132       O         76.79900000  *  141.99200000  * -46.52600000  *
   133       H         77.46100000  *  141.47400000  * -46.03300000  *
   134       C         75.94600000  *  144.22900000  * -46.57700000  *
   135       H         75.02500000  *  143.88000000  * -47.02000000  *
   136       C         76.11100000  *  145.59100000  * -46.26500000  *
   137       H         75.31800000  *  146.28900000  * -46.48600000  *
   138       C         77.63400000  *  149.18700000  * -43.38800000  *
   139       O         78.75600000  *  149.57100000  * -43.71700000  *
   140       N         76.78800000  *  149.98300000  * -42.73200000  *
   141       H         75.90000000  *  149.60900000  * -42.43000000  *
   142       C         77.02600000  *  151.39700000  * -42.44600000  *
   143       H         77.60400000  *  151.49600000  * -41.53000000  *
   144       H         77.60500000  *  151.83000000  * -43.25100000  *
   145       C         75.71600000  *  152.16800000  * -42.28900000  *
   146       O         74.67100000  *  151.56500000  * -42.02500000  *
   147       N         75.75500000  *  153.49500000  * -42.44900000  *
   148       H         76.58800000  *  153.89400000  * -42.85900000  *
   149       C         74.59200000  *  154.32600000  * -42.21200000  *
   150       H         73.82600000  *  153.78000000  * -41.65800000  *
   151       C         74.95900000  *  155.54800000  * -41.37000000  *
   152       H         75.70700000  *  156.13900000  * -41.89300000  *
   153       C         73.73100000  *  156.40900000  * -41.13300000  *
   154       H         72.94300000  *  155.80300000  * -40.68200000  *
   155       H         73.98600000  *  157.21200000  * -40.45000000  *
   156       H         73.36800000  *  156.84900000  * -42.06500000  *
   157       C         75.54500000  *  155.09600000  * -40.05300000  *
   158       H         76.46000000  *  154.52800000  * -40.19800000  *
   159       H         75.77700000  *  155.95300000  * -39.42300000  *
   160       H         74.80500000  *  154.48400000  * -39.53200000  *
   161       C         74.01900000  *  154.79200000  * -43.53700000  *
   162       O         74.76100000  *  155.18400000  * -44.43700000  *
   163       N         72.69800000  *  154.65100000  * -43.67400000  *
   164       H         72.17100000  *  154.30000000  * -42.88100000  *
   165       C         71.91600000  *  155.10000000  * -44.83100000  *
   166       H         72.57100000  *  155.15500000  * -45.69700000  *
   167       C         70.76200000  *  154.12800000  * -45.16000000  *
   168       H         69.93600000  *  154.30000000  * -44.47100000  *
   169       C         70.26300000  *  154.37800000  * -46.58800000  *
   170       H         71.05000000  *  154.15500000  * -47.30800000  *
   171       H         69.40000000  *  153.74200000  * -46.79400000  *
   172       H         69.96300000  *  155.41700000  * -46.70900000  *
   173       C         71.15000000  *  152.65000000  * -45.03300000  *
   174       H         71.37800000  *  152.40800000  * -43.99500000  *
   175       H         70.30500000  *  152.03300000  * -45.33600000  *
   176       H         72.01400000  *  152.43300000  * -45.65700000  *
   177       C         71.35100000  *  156.48700000  * -44.53800000  *
   178       O         70.62300000  *  156.64100000  * -43.55300000  *
   179       N         71.62500000  *  157.49000000  * -45.37400000  *
   180       H         72.23900000  *  157.32200000  * -46.16900000  *
   181       C         71.01800000  *  158.79600000  * -45.21900000  *
   182       H         70.37900000  *  158.84300000  * -44.33800000  *
   183       C         72.10000000  *  159.86100000  * -45.06900000  *
   184       H         72.79900000  *  159.78100000  * -45.90500000  *
   185       H         71.63400000  *  160.84400000  * -45.14300000  *
   186       C         72.87100000  *  159.84300000  * -43.76800000  *
   187       C         72.34700000  *  160.43100000  * -42.61900000  *
   188       H         71.37700000  *  160.90600000  * -42.66800000  *
   189       C         73.06400000  *  160.45200000  * -41.42500000  *
   190       H         72.63300000  *  160.94600000  * -40.56800000  *
   191       C         74.33000000  *  159.87400000  * -41.37100000  *
   192       O         75.04700000  *  159.90100000  * -40.18700000  *
   193       H         74.69700000  *  160.54100000  * -39.56800000  *
   194       C         74.87500000  *  159.27800000  * -42.50300000  *
   195       H         75.78500000  *  158.71900000  * -42.41900000  *
   196       C         74.14000000  *  159.26700000  * -43.69600000  *
   197       H         74.51800000  *  158.73300000  * -44.56500000  *
   198       C         70.16700000  *  159.17400000  * -46.42900000  *
   199       O         70.41800000  *  158.72400000  * -47.55600000  *
   200       N         69.03200000  *  159.83800000  * -46.21300000  *
   201       H         68.84500000  *  160.14400000  * -45.26400000  *
   202       C         68.29400000  *  160.51300000  * -47.28100000  *
   203       H         68.28600000  *  159.90800000  * -48.19000000  *
   204       C         66.84900000  *  160.83600000  * -46.84900000  *
   205       H         66.34100000  *  159.92000000  * -46.56100000  *
   206       H         66.86300000  *  161.50000000  * -45.98300000  *
   207       C         66.02600000  *  161.48100000  * -47.97600000  *
   208       H         66.48000000  *  162.42800000  * -48.27100000  *
   209       H         66.01300000  *  160.81100000  * -48.83700000  *
   210       C         64.58500000  *  161.73500000  * -47.50600000  *
   211       H         64.14700000  *  160.79600000  * -47.15900000  *
   212       H         64.60200000  *  162.44200000  * -46.67400000  *
   213       C         63.73000000  *  162.29900000  * -48.64800000  *
   214       H         64.22700000  *  163.18700000  * -49.05200000  *
   215       H         63.67800000  *  161.54700000  * -49.44400000  *
   216       N         62.36000000  *  162.65300000  * -48.19000000  *
   217       H         62.38400000  *  163.36800000  * -47.47600000  *
   218       H         61.80000000  *  163.01300000  * -48.95100000  *
   219       H         61.87700000  *  161.85300000  * -47.80500000  *
   220       C         69.09700000  *  161.76900000  * -47.51100000  *
   221       O         69.32600000  *  162.50400000  * -46.55400000  *
   222       N         69.55500000  *  162.00600000  * -48.72500000  *
   223       H         69.34400000  *  161.34200000  * -49.46700000  *
   224       C         70.34900000  *  163.18200000  * -49.01700000  *
   225       H         70.22500000  *  163.93500000  * -48.24000000  *
   226       C         71.81400000  *  162.79200000  * -49.07000000  *
   227       H         71.97800000  *  162.06700000  * -49.86400000  *
   228       H         72.42900000  *  163.67700000  * -49.23900000  *
   229       H         72.10500000  *  162.33200000  * -48.12600000  *
   230       C         69.94400000  *  163.83800000  * -50.32200000  *
   231       O         69.22100000  *  163.25100000  * -51.12800000  *
   232       N         70.40700000  *  165.06400000  * -50.52400000  *
   233       H         70.93200000  *  165.53000000  * -49.79600000  *
   234       C         70.10800000  *  165.77900000  * -51.74600000  *
   235       H         69.54100000  *  165.15900000  * -52.44400000  *
   236       H         69.52200000  *  166.69100000  * -51.53000000  *
   237       H         71.05900000  *  166.04700000  * -52.23900000  *
   238       H         68.08600000  *  164.80700000  * -56.55000000  *
   239       C         68.21200000  *  164.39600000  * -55.53600000  *
   240       O         69.28600000  *  164.50800000  * -54.94200000  *
   241       N         67.13500000  *  163.82300000  * -55.01100000  *
   242       H         66.34000000  *  163.66800000  * -55.61500000  *
   243       C         67.13600000  *  163.21200000  * -53.68800000  *
   244       H         67.86300000  *  163.70700000  * -53.05000000  *
   245       C         65.75500000  *  163.32300000  * -53.02900000  *
   246       H         64.97700000  *  163.06900000  * -53.75000000  *
   247       C         65.64800000  *  162.36600000  * -51.85200000  *
   248       H         66.47200000  *  162.51800000  * -51.15200000  *
   249       H         64.69700000  *  162.53800000  * -51.34700000  *
   250       H         65.65200000  *  161.33900000  * -52.20000000  *
   251       C         65.54000000  *  164.75000000  * -52.56600000  *
   252       H         65.62600000  *  165.42400000  * -53.41600000  *
   253       H         64.53500000  *  164.85100000  * -52.15900000  *
   254       H         66.28400000  *  165.00300000  * -51.81000000  *
   255       C         67.52600000  *  161.76000000  * -53.84700000  *
   256       O         66.97900000  *  161.02800000  * -54.68200000  *
   257       N         68.49600000  *  161.34900000  * -53.04800000  *
   258       H         68.91100000  *  161.99700000  * -52.39100000  *
   259       C         69.01100000  *  159.99200000  * -53.10200000  *
   260       H         68.34600000  *  159.34100000  * -53.67900000  *
   261       C         70.37400000  *  159.97400000  * -53.81600000  *
   262       H         70.77500000  *  158.96500000  * -53.87500000  *
   263       C         70.21400000  *  160.50700000  * -55.21300000  *
   264       H         69.95700000  *  161.56600000  * -55.19000000  *
   265       H         71.15100000  *  160.39100000  * -55.75600000  *
   266       H         69.44200000  *  159.95000000  * -55.73600000  *
   267       C         71.37900000  *  160.85000000  * -53.05700000  *
   268       H         71.56500000  *  160.44500000  * -52.06400000  *
   269       H         72.31500000  *  160.84900000  * -53.61300000  *
   270       H         71.03600000  *  161.88400000  * -52.98400000  *
   271       C         69.19200000  *  159.37200000  * -51.72900000  *
   272       O         69.02000000  *  160.03600000  * -50.68600000  *
   273       N         69.38500000  *  158.05900000  * -51.70500000  *
   274       H         69.46500000  *  157.56800000  * -52.59000000  *
   275       C         69.76100000  *  157.32100000  * -50.51600000  *
   276       H         69.47600000  *  157.87800000  * -49.62500000  *
   277       C         69.01200000  *  155.99600000  * -50.49100000  *
   278       H         69.26000000  *  155.42700000  * -51.38400000  *
   279       H         69.29600000  *  155.42600000  * -49.60600000  *
   280       H         67.94100000  *  156.19000000  * -50.46500000  *
   281       C         71.27900000  *  157.14400000  * -50.54100000  *
   282       O         71.81500000  *  156.46900000  * -51.42600000  *
   283       N         71.97000000  *  157.79100000  * -49.60300000  *
   284       H         71.44500000  *  158.28300000  * -48.88900000  *
   285       C         73.41300000  *  157.73400000  * -49.53500000  *
   286       H         73.80300000  *  157.43200000  * -50.50200000  *
   287       C         73.96100000  *  159.11400000  * -49.18200000  *
   288       H         73.49200000  *  159.84000000  * -49.85100000  *
   289       H         73.62800000  *  159.35800000  * -48.16900000  *
   290       C         75.47300000  *  159.31600000  * -49.26600000  *
   291       H         75.96900000  *  158.63700000  * -48.57100000  *
   292       C         75.94900000  *  159.02000000  * -50.68400000  *
   293       H         75.44100000  *  159.71800000  * -51.34800000  *
   294       H         77.02400000  *  159.18800000  * -50.76300000  *
   295       H         75.74700000  *  157.98700000  * -50.96800000  *
   296       C         75.80400000  *  160.74000000  * -48.87900000  *
   297       H         75.43700000  *  160.94600000  * -47.87600000  *
   298       H         76.88200000  *  160.87900000  * -48.92200000  *
   299       H         75.32000000  *  161.42900000  * -49.57600000  *
   300       C         73.82100000  *  156.71600000  * -48.48500000  *
   301       O         73.39600000  *  156.78100000  * -47.33400000  *
   302       N         74.65100000  *  155.75600000  * -48.88600000  *
   303       H         74.89200000  *  155.74000000  * -49.87400000  *
   304       C         75.13200000  *  154.63500000  * -48.06900000  *
   305       H         74.60600000  *  154.60700000  * -47.11300000  *
   306       C         74.84600000  *  153.33800000  * -48.86400000  *
   307       H         74.31400000  *  153.59200000  * -49.78300000  *
   308       H         75.78100000  *  152.86800000  * -49.16700000  *
   309       C         73.98600000  *  152.28700000  * -48.16000000  *
   310       H         73.14700000  *  152.77200000  * -47.66200000  *
   311       H         73.57800000  *  151.64500000  * -48.94000000  *
   312       C         74.78400000  *  151.43100000  * -47.16000000  *
   313       H         75.78700000  *  151.24300000  * -47.54400000  *
   314       H         74.88500000  *  151.98900000  * -46.22600000  *
   315       C         74.09700000  *  150.08100000  * -46.88000000  *
   316       H         74.59700000  *  149.61600000  * -46.02400000  *
   317       H         73.06300000  *  150.28100000  * -46.58300000  *
   318       N         74.13800000  *  149.15900000  * -48.05800000  *
   319       H         75.08500000  *  148.90300000  * -48.31300000  *
   320       H         73.63000000  *  148.27900000  * -47.88500000  *
   321       H         73.69600000  *  149.56800000  * -48.87200000  *
   322       C         76.62500000  *  154.83900000  * -47.79600000  *
   323       O         77.42100000  *  154.66500000  * -48.71000000  *
   324       N         77.01700000  *  155.22600000  * -46.58100000  *
   325       H         76.29800000  *  155.26800000  * -45.86500000  *
   326       C         78.42200000  *  155.28900000  * -46.15900000  *
   327       H         79.06600000  *  155.59300000  * -46.98900000  *
   328       C         78.56700000  *  156.26000000  * -44.97900000  *
   329       H         78.02700000  *  155.87500000  * -44.10900000  *
   330       H         79.62500000  *  156.33900000  * -44.73000000  *
   331       C         78.01500000  *  157.64300000  * -45.34000000  *
   332       H         78.45100000  *  157.95800000  * -46.27300000  *
   333       H         76.93600000  *  157.57500000  * -45.50000000  *
   334       C         78.25100000  *  158.72500000  * -44.27900000  *
   335       H         77.97800000  *  159.68000000  * -44.73200000  *
   336       H         77.56000000  *  158.53300000  * -43.46900000  *
   337       C         79.67700000  *  158.85000000  * -43.70900000  *
   338       H         80.38400000  *  158.36300000  * -44.39700000  *
   339       H         79.95000000  *  159.91100000  * -43.68600000  *
   340       N         79.78800000  *  158.26900000  * -42.33500000  *
   341       H         79.63700000  *  157.26100000  * -42.37000000  *
   342       H         80.69600000  *  158.42600000  * -41.93200000  *
   343       H         79.10400000  *  158.64600000  * -41.70100000  *
   344       C         78.82300000  *  153.89100000  * -45.72900000  *
   345       O         78.09100000  *  153.31500000  * -44.93700000  *
   346       N         79.90700000  *  153.32000000  * -46.24700000  *
   347       H         80.40500000  *  153.76400000  * -47.01000000  *
   348       C         80.34300000  *  152.02200000  * -45.76800000  *
   349       H         79.49500000  *  151.49800000  * -45.35900000  *
   350       C         80.94400000  *  151.18600000  * -46.89500000  *
   351       H         81.78600000  *  151.78200000  * -47.16900000  *
   352       C         81.42400000  *  149.85200000  * -46.34500000  *
   353       H         80.65600000  *  149.35200000  * -45.75200000  *
   354       H         81.67900000  *  149.19900000  * -47.17900000  *
   355       H         82.34500000  *  149.95700000  * -45.76100000  *
   356       C         79.89700000  *  150.97600000  * -47.99700000  *
   357       H         79.60200000  *  151.87000000  * -48.50000000  *
   358       H         80.28300000  *  150.30500000  * -48.75000000  *
   359       C         78.59100000  *  150.36100000  * -47.52600000  *
   360       H         78.17700000  *  150.90100000  * -46.69000000  *
   361       H         77.89400000  *  150.33700000  * -48.36300000  *
   362       H         78.77100000  *  149.33300000  * -47.20900000  *
   363       C         81.33300000  *  152.07100000  * -44.61400000  *
   364       O         82.16700000  *  152.98000000  * -44.51900000  *
   365       N         81.21100000  *  151.07100000  * -43.74300000  *
   366       H         80.50300000  *  150.36100000  * -43.92800000  *
   367       C         82.04400000  *  150.90200000  * -42.55200000  *
   368       H         81.47500000  *  151.18100000  * -41.66300000  *
   369       H         82.35800000  *  149.86100000  * -42.45900000  *
   370       H         82.94700000  *  151.51400000  * -42.62000000  *
   371       H         81.25700000  *  144.04600000  * -57.89900000  *
   372       C         80.50000000  *  144.84100000  * -57.88800000  *
   373       O         79.71500000  *  144.99000000  * -58.82400000  *
   374       N         80.49900000  *  145.60300000  * -56.79700000  *
   375       H         81.28000000  *  145.52500000  * -56.16600000  *
   376       C         79.57000000  *  146.70600000  * -56.61200000  *
   377       H         78.57500000  *  146.34400000  * -56.42300000  *
   378       C         80.00500000  *  147.61000000  * -55.44200000  *
   379       H         80.89800000  *  148.18000000  * -55.68500000  *
   380       C         78.90600000  *  148.60800000  * -55.12500000  *
   381       H         77.92000000  *  148.14100000  * -55.17600000  *
   382       H         79.04500000  *  148.98700000  * -54.11600000  *
   383       H         78.93800000  *  149.43600000  * -55.83300000  *
   384       C         80.32100000  *  146.76200000  * -54.20900000  *
   385       H         81.19200000  *  146.13400000  * -54.40600000  *
   386       H         80.59400000  *  147.42200000  * -53.38900000  *
   387       C         79.18400000  *  145.87900000  * -53.76500000  *
   388       H         78.77800000  *  145.31100000  * -54.59400000  *
   389       H         79.50900000  *  145.12200000  * -53.06500000  *
   390       H         78.38800000  *  146.48300000  * -53.33500000  *
   391       C         79.54300000  *  147.54500000  * -57.87900000  *
   392       O         78.48200000  *  147.77900000  * -58.45100000  *
   393       N         80.72300000  *  147.98900000  * -58.30900000  *
   394       H         81.55800000  *  147.70100000  * -57.81200000  *
   395       C         80.85900000  *  148.80400000  * -59.51100000  *
   396       H         80.33900000  *  149.74600000  * -59.38600000  *
   397       H         81.92800000  *  148.98500000  * -59.72900000  *
   398       H         80.37800000  *  148.32200000  * -60.38100000  *
   399       H         78.96400000  *  146.08700000  * -61.65600000  *
   400       C         77.87300000  *  146.08700000  * -61.51600000  *
   401       O         77.11500000  *  145.89500000  * -62.46400000  *
   402       N         77.44600000  *  146.31800000  * -60.28000000  *
   403       H         78.13400000  *  146.42500000  * -59.54900000  *
   404       C         76.02800000  *  146.35200000  * -59.94500000  *
   405       H         75.53300000  *  145.47600000  * -60.35900000  *
   406       C         75.84100000  *  146.37400000  * -58.43100000  *
   407       H         76.20500000  *  147.30400000  * -58.01800000  *
   408       H         74.76300000  *  146.35700000  * -58.24200000  *
   409       C         76.47200000  *  145.22200000  * -57.65900000  *
   410       H         77.55000000  *  145.23900000  * -57.74900000  *
   411       C         76.08000000  *  145.34100000  * -56.19200000  *
   412       H         74.99900000  *  145.23000000  * -56.07700000  *
   413       H         76.57300000  *  144.55300000  * -55.62900000  *
   414       H         76.38500000  *  146.30900000  * -55.80100000  *
   415       C         75.99600000  *  143.89000000  * -58.23600000  *
   416       H         76.41500000  *  143.73000000  * -59.22900000  *
   417       H         76.32800000  *  143.07800000  * -57.59100000  *
   418       H         74.90500000  *  143.87400000  * -58.30500000  *
   419       C         75.32200000  *  147.55900000  * -60.54800000  *
   420       O         74.09500000  *  147.56800000  * -60.66200000  *
   421       N         76.08400000  *  148.63100000  * -60.82900000  *
   422       H         77.08200000  *  148.53500000  * -60.67700000  *
   423       C         75.60100000  *  149.83300000  * -61.53400000  *
   424       H         74.83700000  *  150.33500000  * -60.94100000  *
   425       H         76.43800000  *  150.53300000  * -61.75900000  *
   426       H         75.13800000  *  149.54900000  * -62.49200000  *
   427       H         62.79000000  *  145.77200000  * -59.27600000  *
   428       C         63.71000000  *  145.72000000  * -58.67500000  *
   429       O         63.77900000  *  145.02200000  * -57.66400000  *
   430       N         64.72400000  *  146.45200000  * -59.11400000  *
   431       H         64.63800000  *  147.05100000  * -59.92700000  *
   432       C         65.97100000  *  146.53500000  * -58.38100000  *
   433       H         65.88400000  *  146.09200000  * -57.38600000  *
   434       C         67.11600000  *  145.87700000  * -59.11400000  *
   435       H         67.33600000  *  146.42600000  * -60.03000000  *
   436       C         68.35100000  *  145.87800000  * -58.21400000  *
   437       H         68.14700000  *  145.31400000  * -57.31800000  *
   438       H         69.21000000  *  145.44500000  * -58.72400000  *
   439       H         68.64100000  *  146.89000000  * -57.94500000  *
   440       C         66.72800000  *  144.44400000  * -59.47800000  *
   441       H         66.54900000  *  143.87300000  * -58.56400000  *
   442       H         65.81500000  *  144.42400000  * -60.06800000  *
   443       C         67.77400000  *  143.72700000  * -60.29600000  *
   444       H         68.68300000  *  143.57700000  * -59.72200000  *
   445       H         67.37700000  *  142.75300000  * -60.59800000  *
   446       H         68.02300000  *  144.31300000  * -61.18000000  *
   447       C         66.29500000  *  148.01000000  * -58.22000000  *
   448       O         66.21200000  *  148.78000000  * -59.18400000  *
   449       N         66.55000000  *  148.44200000  * -56.98100000  *
   450       H         66.62000000  *  147.76200000  * -56.22900000  *
   451       C         66.88400000  *  149.84100000  * -56.68700000  *
   452       H         66.06900000  *  150.48100000  * -57.02500000  *
   453       C         67.08200000  *  150.06500000  * -55.18100000  *
   454       H         67.89600000  *  149.43100000  * -54.82600000  *
   455       C         67.41700000  *  151.52400000  * -54.85100000  *
   456       H         66.57400000  *  152.17100000  * -55.09300000  *
   457       H         67.63700000  *  151.60400000  * -53.78900000  *
   458       H         68.28700000  *  151.86100000  * -55.40800000  *
   459       C         65.81200000  *  149.71700000  * -54.40400000  *
   460       H         65.55000000  *  148.67000000  * -54.53000000  *
   461       H         66.00200000  *  149.88900000  * -53.35100000  *
   462       H         64.98300000  *  150.33700000  * -54.73700000  *
   463       C         68.14900000  *  150.21700000  * -57.45200000  *
   464       O         69.17700000  *  149.54600000  * -57.32600000  *
   465       N         68.08000000  *  151.28300000  * -58.25100000  *
   466       H         67.22500000  *  151.80400000  * -58.24500000  *
   467       C         69.18900000  *  151.69800000  * -59.08000000  *
   468       H         69.52500000  *  150.81900000  * -59.63900000  *
   469       C         68.73700000  *  152.76800000  * -60.08300000  *
   470       H         67.83400000  *  152.41100000  * -60.57900000  *
   471       H         68.47700000  *  153.68100000  * -59.53700000  *
   472       C         69.79100000  *  153.06900000  * -61.13100000  *
   473       H         70.72100000  *  153.35000000  * -60.64200000  *
   474       H         69.97400000  *  152.16800000  * -61.71600000  *
   475       C         69.35100000  *  154.17900000  * -62.08100000  *
   476       H         68.50200000  *  153.81400000  * -62.66100000  *
   477       H         69.02300000  *  155.05600000  * -61.52200000  *
   478       C         70.49800000  *  154.55900000  * -63.02400000  *
   479       H         71.33900000  *  154.89000000  * -62.40800000  *
   480       H         70.81900000  *  153.66100000  * -63.56600000  *
   481       N         70.11800000  *  155.62600000  * -63.99700000  *
   482       H         69.74700000  *  156.41600000  * -63.48300000  *
   483       H         70.92600000  *  155.93300000  * -64.52500000  *
   484       H         69.41500000  *  155.27800000  * -64.63600000  *
   485       C         70.36000000  *  152.21400000  * -58.25300000  *
   486       O         70.19400000  *  153.07400000  * -57.38700000  *
   487       N         71.53700000  *  151.64500000  * -58.50700000  *
   488       H         71.59600000  *  150.90400000  * -59.18600000  *
   489       C         72.75000000  *  152.07400000  * -57.83600000  *
   490       H         72.53800000  *  152.52600000  * -56.87100000  *
   491       C         73.72700000  *  150.91100000  * -57.67000000  *
   492       H         73.31500000  *  150.22100000  * -56.93700000  *
   493       H         73.77900000  *  150.36900000  * -58.62000000  *
   494       C         75.16700000  *  151.27300000  * -57.28800000  *
   495       H         75.65500000  *  151.80300000  * -58.10000000  *
   496       C         75.18300000  *  152.16500000  * -56.05900000  *
   497       H         74.60800000  *  151.72100000  * -55.25200000  *
   498       H         76.21000000  *  152.29600000  * -55.73500000  *
   499       H         74.78900000  *  153.14000000  * -56.31200000  *
   500       C         75.93300000  *  149.99400000  * -57.01300000  *
   501       H         75.98300000  *  149.42100000  * -57.93300000  *
   502       H         76.94600000  *  150.24200000  * -56.71200000  *
   503       H         75.43500000  *  149.41000000  * -56.23200000  *
   504       C         73.31900000  *  153.11300000  * -58.79500000  *
   505       O         73.76900000  *  152.77900000  * -59.89700000  *
   506       N         73.26700000  *  154.36900000  * -58.37800000  *
   507       H         72.92600000  *  154.57000000  * -57.44900000  *
   508       C         73.73400000  *  155.46600000  * -59.19700000  *
   509       H         73.47500000  *  155.26500000  * -60.23600000  *
   510       C         73.02500000  *  156.74200000  * -58.76000000  *
   511       H         73.45000000  *  157.06300000  * -57.80900000  *
   512       H         73.23600000  *  157.53300000  * -59.48700000  *
   513       C         71.51300000  *  156.60300000  * -58.58700000  *
   514       H         71.27400000  *  155.80900000  * -57.88500000  *
   515       C         70.97400000  *  157.88000000  * -58.01900000  *
   516       H         71.37000000  *  158.74600000  * -58.56000000  *
   517       H         69.88800000  *  157.89100000  * -58.09300000  *
   518       H         71.22100000  *  157.96000000  * -56.96600000  *
   519       C         70.85100000  *  156.29000000  * -59.92300000  *
   520       H         71.28300000  *  155.39700000  * -60.34200000  *
   521       H         69.78900000  *  156.14400000  * -59.75100000  *
   522       H         71.00300000  *  157.12700000  * -60.60700000  *
   523       C         75.24500000  *  155.67800000  * -59.15800000  *
   524       O         75.83900000  *  156.04700000  * -60.17600000  *
   525       N         75.86200000  *  155.44600000  * -57.99600000  *
   526       H         75.29500000  *  155.17900000  * -57.20400000  *
   527       C         77.30800000  *  155.64700000  * -57.82900000  *
   528       H         77.80800000  *  155.40400000  * -58.76600000  *
   529       C         77.60000000  *  157.11700000  * -57.51900000  *
   530       H         76.91700000  *  157.54400000  * -56.80300000  *
   531       H         78.58200000  *  157.17000000  * -57.04800000  *
   532       C         77.65600000  *  157.97500000  * -58.75600000  *
   533       O         78.67800000  *  157.91700000  * -59.48300000  *
   534       O         76.67400000  *  158.70400000  * -59.00000000  *
   535       C         77.97900000  *  154.81700000  * -56.73400000  *
   536       O         77.37100000  *  154.52100000  * -55.70400000  *
   537       N         79.24700000  *  154.47700000  * -56.96600000  *
   538       H         79.69800000  *  154.82400000  * -57.79800000  *
   539       C         80.06100000  *  153.73800000  * -56.00300000  *
   540       H         79.55400000  *  153.69900000  * -55.05200000  *
   541       C         80.36600000  *  152.29800000  * -56.50400000  *
   542       H         79.42700000  *  151.75200000  * -56.56200000  *
   543       C         80.98100000  *  152.34300000  * -57.88400000  *
   544       H         82.06600000  *  152.43300000  * -57.82100000  *
   545       H         80.74600000  *  151.41400000  * -58.37900000  *
   546       H         80.59600000  *  153.14500000  * -58.51000000  *
   547       C         81.29900000  *  151.58800000  * -55.53900000  *
   548       H         80.81100000  *  151.54900000  * -54.57200000  *
   549       H         81.47300000  *  150.57200000  * -55.87800000  *
   550       H         82.25900000  *  152.09200000  * -55.44900000  *
   551       C         81.36500000  *  154.53600000  * -55.81000000  *
   552       O         82.27000000  *  154.48900000  * -56.64700000  *
   553       N         81.45200000  *  155.28200000  * -54.71000000  *
   554       H         80.67600000  *  155.30400000  * -54.06400000  *
   555       C         82.62100000  *  156.11100000  * -54.44300000  *
   556       H         83.20500000  *  156.21800000  * -55.35800000  *
   557       H         82.32200000  *  157.12800000  * -54.14500000  *
   558       H         83.29700000  *  155.73900000  * -53.65600000  *
   559       H         84.58000000  *  155.17100000  * -47.07300000  *
   560       C         84.22500000  *  154.98400000  * -48.09100000  *
   561       O         84.63900000  *  155.65900000  * -49.04200000  *
   562       N         83.35800000  *  153.99100000  * -48.22200000  *
   563       H         83.13600000  *  153.42800000  * -47.41700000  *
   564       C         82.77600000  *  153.65100000  * -49.50600000  *
   565       H         83.37000000  *  154.04700000  * -50.31700000  *
   566       C         82.71900000  *  152.14000000  * -49.66000000  *
   567       H         83.74000000  *  151.87500000  * -49.95700000  *
   568       H         82.64400000  *  151.54600000  * -48.78400000  *
   569       C         81.82600000  *  151.61900000  * -50.77900000  *
   570       H         80.79100000  *  151.88400000  * -50.58700000  *
   571       C         82.25800000  *  152.23100000  * -52.09200000  *
   572       H         83.31100000  *  152.49100000  * -52.08900000  *
   573       H         82.09300000  *  151.51300000  * -52.88400000  *
   574       H         81.65400000  *  153.10900000  * -52.31200000  *
   575       C         81.89900000  *  150.09400000  * -50.82200000  *
   576       H         81.91300000  *  149.66400000  * -49.82700000  *
   577       H         81.05200000  *  149.70600000  * -51.39100000  *
   578       H         82.82500000  *  149.80300000  * -51.32100000  *
   579       C         81.36700000  *  154.23200000  * -49.54800000  *
   580       O         80.51800000  *  153.85700000  * -48.74500000  *
   581       N         81.13100000  *  155.16100000  * -50.46700000  *
   582       H         81.84500000  *  155.34800000  * -51.16200000  *
   583       C         79.82200000  *  155.78100000  * -50.60800000  *
   584       H         79.27400000  *  155.67000000  * -49.68700000  *
   585       C         79.96700000  *  157.27800000  * -50.86800000  *
   586       H         80.42300000  *  157.50400000  * -51.79700000  *
   587       H         78.95400000  *  157.66400000  * -50.98900000  *
   588       C         80.57600000  *  158.04300000  * -49.72300000  *
   589       C         79.79300000  *  158.48000000  * -48.65600000  *
   590       H         78.73500000  *  158.25400000  * -48.66900000  *
   591       C         80.35600000  *  159.18600000  * -47.59400000  *
   592       H         79.75300000  *  159.56200000  * -46.79700000  *
   593       C         81.71600000  *  159.45200000  * -47.58700000  *
   594       O         82.27600000  *  160.12500000  * -46.52100000  *
   595       H         83.20600000  *  160.30800000  * -46.74500000  *
   596       C         82.51400000  *  159.02600000  * -48.63700000  *
   597       H         83.58200000  *  159.23300000  * -48.65000000  *
   598       C         81.94100000  *  158.32800000  * -49.69800000  *
   599       H         82.57400000  *  157.98100000  * -50.50200000  *
   600       C         79.04800000  *  155.15800000  * -51.76500000  *
   601       O         79.54400000  *  155.08000000  * -52.88800000  *
   602       N         77.86300000  *  154.61900000  * -51.49500000  *
   603       H         77.53700000  *  154.64000000  * -50.53500000  *
   604       C         76.98300000  *  154.05500000  * -52.51700000  *
   605       H         77.51000000  *  154.01100000  * -53.46400000  *
   606       C         76.55100000  *  152.61800000  * -52.17600000  *
   607       H         75.84800000  *  152.65000000  * -51.35300000  *
   608       H         76.02000000  *  152.21900000  * -53.04200000  *
   609       C         77.68800000  *  151.65000000  * -51.81000000  *
   610       H         78.19200000  *  151.99300000  * -50.90600000  *
   611       C         77.12400000  *  150.25400000  * -51.54800000  *
   612       H         76.63900000  *  149.86900000  * -52.44700000  *
   613       H         77.93100000  *  149.57800000  * -51.26200000  *
   614       H         76.40000000  *  150.29700000  * -50.73600000  *
   615       C         78.70500000  *  151.53700000  * -52.93800000  *
   616       H         79.22100000  *  152.48600000  * -53.06100000  *
   617       H         79.44300000  *  150.77800000  * -52.68900000  *
   618       H         78.20200000  *  151.27300000  * -53.87000000  *
   619       C         75.78700000  *  154.98400000  * -52.67400000  *
   620       O         75.10400000  *  155.25800000  * -51.68300000  *
   621       N         75.54700000  *  155.50800000  * -53.87800000  *
   622       H         76.14500000  *  155.25500000  * -54.66000000  *
   623       C         74.40900000  *  156.37500000  * -54.09400000  *
   624       H         73.97600000  *  156.70200000  * -53.15000000  *
   625       C         74.83400000  *  157.63700000  * -54.81800000  *
   626       H         75.25500000  *  157.34500000  * -55.76600000  *
   627       C         73.61400000  *  158.52200000  * -55.10900000  *
   628       H         73.11700000  *  158.76900000  * -54.17500000  *
   629       H         73.94100000  *  159.43100000  * -55.61500000  *
   630       H         72.91600000  *  158.00900000  * -55.76200000  *
   631       C         75.84000000  *  158.38200000  * -53.94900000  *
   632       H         75.28100000  *  158.78400000  * -53.13000000  *
   633       H         76.65600000  *  157.75800000  * -53.60500000  *
   634       H         76.26100000  *  159.20400000  * -54.52500000  *
   635       C         73.31400000  *  155.64400000  * -54.85300000  *
   636       O         73.49500000  *  155.22100000  * -55.99400000  *
   637       N         72.21500000  *  155.37300000  * -54.15600000  *
   638       H         72.14700000  *  155.72600000  * -53.20500000  *
   639       C         71.03500000  *  154.70700000  * -54.69600000  *
   640       H         71.28100000  *  154.24700000  * -55.64900000  *
   641       C         70.57100000  *  153.60800000  * -53.73400000  *
   642       H         70.46600000  *  154.03200000  * -52.73500000  *
   643       H         69.58100000  *  153.27800000  * -54.04400000  *
   644       C         71.47700000  *  152.39300000  * -53.66200000  *
   645       C         71.27400000  *  151.31100000  * -54.53900000  *
   646       H         70.49900000  *  151.35700000  * -55.28900000  *
   647       C         72.07100000  *  150.15700000  * -54.44100000  *
   648       H         71.90200000  *  149.32400000  * -55.11100000  *
   649       C         73.08500000  *  150.08500000  * -53.47100000  *
   650       H         73.70000000  *  149.19800000  * -53.39600000  *
   651       C         73.29800000  *  151.16800000  * -52.60000000  *
   652       H         74.07200000  *  151.10700000  * -51.85100000  *
   653       C         72.49900000  *  152.32300000  * -52.69500000  *
   654       H         72.66300000  *  153.15100000  * -52.01900000  *
   655       C         69.91400000  *  155.72300000  * -54.92800000  *
   656       O         69.78500000  *  156.69600000  * -54.18400000  *
   657       N         69.08300000  *  155.50800000  * -55.94900000  *
   658       H         69.22900000  *  154.68400000  * -56.52400000  *
   659       C         67.81700000  *  156.24700000  * -56.07400000  *
   660       H         68.05700000  *  157.29800000  * -56.23800000  *
   661       C         67.02000000  *  155.75700000  * -57.29500000  *
   662       H         66.14400000  *  156.39800000  * -57.39900000  *
   663       H         67.63700000  *  155.86400000  * -58.18800000  *
   664       C         66.56000000  *  154.29600000  * -57.17600000  *
   665       H         67.44100000  *  153.65800000  * -57.09300000  *
   666       H         65.97400000  *  154.17800000  * -56.26900000  *
   667       C         65.68800000  *  153.81400000  * -58.33900000  *
   668       O         65.17200000  *  154.63600000  * -59.13000000  *
   669       O         65.48500000  *  152.58200000  * -58.43000000  *
   670       C         66.99400000  *  156.14800000  * -54.77100000  *
   671       O         66.93300000  *  155.08800000  * -54.14500000  *
   672       N         66.37400000  *  157.24300000  * -54.32700000  *
   673       H         66.41000000  *  158.09400000  * -54.87000000  *
   674       C         65.50800000  *  157.21600000  * -53.14500000  *
   675       H         65.97700000  *  156.59400000  * -52.38000000  *
   676       C         65.37600000  *  158.62700000  * -52.56600000  *
   677       H         66.36700000  *  158.98500000  * -52.28700000  *
   678       H         64.98400000  *  159.29000000  * -53.33900000  *
   679       C         64.48100000  *  158.70900000  * -51.34300000  *
   680       C         63.18500000  *  159.25000000  * -51.44500000  *
   681       H         62.82400000  *  159.62300000  * -52.39400000  *
   682       C         62.35100000  *  159.30000000  * -50.31400000  *
   683       H         61.35400000  *  159.71000000  * -50.39800000  *
   684       C         62.81000000  *  158.80800000  * -49.07900000  *
   685       H         62.16600000  *  158.83800000  * -48.21000000  *
   686       C         64.10500000  *  158.26900000  * -48.97500000  *
   687       H         64.45500000  *  157.88700000  * -48.02600000  *
   688       C         64.93900000  *  158.21800000  * -50.10600000  *
   689       H         65.92900000  *  157.79300000  * -50.02700000  *
   690       C         64.13300000  *  156.60800000  * -53.46700000  *
   691       O         63.49900000  *  156.98800000  * -54.45500000  *
   692       N         63.65200000  *  155.70700000  * -52.60500000  *
   693       H         64.23900000  *  155.43600000  * -51.82400000  *
   694       C         62.25900000  *  155.24500000  * -52.57500000  *
   695       H         61.67900000  *  155.78400000  * -53.32700000  *
   696       C         62.15700000  *  153.74000000  * -52.87500000  *
   697       H         62.92900000  *  153.20700000  * -52.32300000  *
   698       H         61.18800000  *  153.39900000  * -52.50500000  *
   699       C         62.24100000  *  153.39900000  * -54.37500000  *
   700       H         61.79900000  *  154.20600000  * -54.95800000  *
   701       C         63.68500000  *  153.18500000  * -54.82400000  *
   702       H         64.15100000  *  152.40700000  * -54.22400000  *
   703       H         63.71300000  *  152.91000000  * -55.87700000  *
   704       H         64.24900000  *  154.10700000  * -54.69800000  *
   705       C         61.45900000  *  152.12000000  * -54.68200000  *
   706       H         60.42600000  *  152.22900000  * -54.35100000  *
   707       H         61.45300000  *  151.94400000  * -55.75600000  *
   708       H         61.90900000  *  151.26700000  * -54.17700000  *
   709       C         61.63300000  *  155.58000000  * -51.21800000  *
   710       O         62.31000000  *  155.61200000  * -50.19300000  *
   711       N         60.34000000  *  155.88600000  * -51.22600000  *
   712       H         59.84800000  *  155.84500000  * -52.11100000  *
   713       C         59.66200000  *  156.59100000  * -50.13700000  *
   714       H         60.27400000  *  157.45200000  * -49.86500000  *
   715       C         58.32600000  *  157.12900000  * -50.66600000  *
   716       H         57.62300000  *  156.30100000  * -50.75700000  *
   717       H         57.93700000  *  157.83900000  * -49.93900000  *
   718       C         58.41400000  *  157.81700000  * -52.00900000  *
   719       N         58.44300000  *  157.16900000  * -53.25000000  *
   720       C         58.57700000  *  158.14100000  * -54.16900000  *
   721       H         58.63300000  *  157.98100000  * -55.24000000  *
   722       N         58.63900000  *  159.34400000  * -53.57200000  *
   723       H         58.74500000  *  160.23000000  * -54.05700000  *
   724       C         58.54400000  *  159.16000000  * -52.21000000  *
   725       H         58.57900000  *  159.92500000  * -51.44400000  *
   726       C         59.46300000  *  155.78300000  * -48.84200000  *
   727       O         59.32700000  *  156.38500000  * -47.77600000  *
   728       N         59.42900000  *  154.44600000  * -48.91400000  *
   729       H         59.55100000  *  154.01600000  * -49.82200000  *
   730       C         59.10400000  *  153.55800000  * -47.78800000  *
   731       H         59.58100000  *  153.94700000  * -46.88700000  *
   732       C         57.57200000  *  153.58600000  * -47.58200000  *
   733       H         57.28500000  *  154.60200000  * -47.30600000  *
   734       H         57.07100000  *  153.33900000  * -48.51900000  *
   735       C         57.07100000  *  152.62800000  * -46.49200000  *
   736       H         56.91400000  *  151.64500000  * -46.93300000  *
   737       H         57.82600000  *  152.54700000  * -45.71000000  *
   738       C         55.77900000  *  153.09800000  * -45.83400000  *
   739       O         55.78100000  *  153.71100000  * -44.77900000  *
   740       N         54.62900000  *  152.83300000  * -46.41700000  *
   741       H         53.79800000  *  153.16700000  * -45.95300000  *
   742       H         54.60100000  *  152.35900000  * -47.30200000  *
   743       C         59.63200000  *  152.12500000  * -48.01100000  *
   744       O         59.65100000  *  151.64300000  * -49.14400000  *
   745       N         60.04700000  *  151.43400000  * -46.94000000  *
   746       H         60.02500000  *  151.88300000  * -46.03800000  *
   747       C         60.33700000  *  149.99100000  * -46.97100000  *
   748       H         60.64100000  *  149.75500000  * -47.98700000  *
   749       C         61.55500000  *  149.63300000  * -46.09300000  *
   750       H         61.86100000  *  148.62200000  * -46.36500000  *
   751       H         62.37700000  *  150.29900000  * -46.36100000  *
   752       C         61.35700000  *  149.66500000  * -44.56900000  *
   753       O         60.24700000  *  149.35800000  * -44.08800000  *
   754       O         62.34000000  *  149.95500000  * -43.84800000  *
   755       C         59.10100000  *  149.10500000  * -46.69200000  *
   756       O         58.07500000  *  149.55400000  * -46.16500000  *
   757       N         59.19100000  *  147.81900000  * -47.04800000  *
   758       H         60.03800000  *  147.50900000  * -47.52500000  *
   759       C         58.10100000  *  146.88000000  * -46.84100000  *
   760       H         57.21800000  *  147.32500000  * -47.29300000  *
   761       C         58.41200000  *  145.57700000  * -47.59200000  *
   762       H         58.61300000  *  145.80400000  * -48.64400000  *
   763       H         59.28800000  *  145.12100000  * -47.15800000  *
   764       C         57.28700000  *  144.52700000  * -47.51900000  *
   765       H         57.05600000  *  144.28000000  * -46.48700000  *
   766       C         56.00700000  *  145.04400000  * -48.19600000  *
   767       H         56.23500000  *  145.37800000  * -49.20200000  *
   768       H         55.26800000  *  144.24500000  * -48.23100000  *
   769       H         55.59500000  *  145.87000000  * -47.62900000  *
   770       C         57.76800000  *  143.24900000  * -48.17500000  *
   771       H         58.61500000  *  142.85400000  * -47.62000000  *
   772       H         56.97300000  *  142.50400000  * -48.17100000  *
   773       H         58.06400000  *  143.44500000  * -49.20700000  *
   774       C         57.76400000  *  146.61300000  * -45.36900000  *
   775       O         56.60900000  *  146.37600000  * -45.03000000  *
   776       N         58.75700000  *  146.67700000  * -44.48800000  *
   777       H         59.64000000  *  147.08600000  * -44.79000000  *
   778       C         58.49100000  *  146.46700000  * -43.07300000  *
   779       H         57.97900000  *  145.55100000  * -42.87200000  *
   780       C         59.78200000  *  146.47800000  * -42.25400000  *
   781       H         60.44800000  *  145.70000000  * -42.62000000  *
   782       H         60.28600000  *  147.44000000  * -42.35600000  *
   783       C         59.49200000  *  146.22900000  * -40.76500000  *
   784       H         58.94200000  *  147.08300000  * -40.37400000  *
   785       H         58.87100000  *  145.33200000  * -40.67600000  *
   786       C         60.74500000  *  146.03800000  * -39.93500000  *
   787       H         61.36100000  *  145.25900000  * -40.37900000  *
   788       H         61.30800000  *  146.97100000  * -39.90700000  *
   789       C         60.37600000  *  145.60700000  * -38.51700000  *
   790       H         59.98500000  *  144.58900000  * -38.53700000  *
   791       H         61.27900000  *  145.61300000  * -37.90300000  *
   792       N         59.34600000  *  146.53100000  * -37.94700000  *
   793       H         58.44600000  *  146.48100000  * -38.44300000  *
   794       H         59.09000000  *  146.27800000  * -37.00400000  *
   795       H         59.61300000  *  147.50600000  * -37.97800000  *
   796       C         57.55800000  *  147.53800000  * -42.51200000  *
   797       O         56.61300000  *  147.23400000  * -41.78300000  *
   798       N         57.83000000  *  148.81300000  * -42.80200000  *
   799       H         58.65700000  *  149.01500000  * -43.36900000  *
   800       C         57.00300000  *  149.92600000  * -42.32100000  *
   801       H         56.88500000  *  149.82400000  * -41.24000000  *
   802       C         57.71500000  *  151.25800000  * -42.60000000  *
   803       H         58.74000000  *  151.19100000  * -42.23000000  *
   804       H         57.74600000  *  151.43900000  * -43.67400000  *
   805       C         57.02000000  *  152.43100000  * -41.89000000  *
   806       H         56.02000000  *  152.56600000  * -42.30500000  *
   807       H         56.92700000  *  152.20000000  * -40.82800000  *
   808       C         57.81700000  *  153.73400000  * -42.04500000  *
   809       H         58.80300000  *  153.60600000  * -41.59500000  *
   810       H         57.93600000  *  153.96700000  * -43.10400000  *
   811       C         57.07700000  *  154.87900000  * -41.34200000  *
   812       H         56.09400000  *  154.99900000  * -41.80800000  *
   813       H         56.91800000  *  154.60300000  * -40.29600000  *
   814       N         57.83300000  *  156.15500000  * -41.41700000  *
   815       H         57.97900000  *  156.44000000  * -42.37400000  *
   816       H         57.33400000  *  156.89800000  * -40.95000000  *
   817       H         58.73600000  *  156.07100000  * -40.97300000  *
   818       C         55.60200000  *  149.84500000  * -42.92500000  *
   819       O         54.62200000  *  150.09500000  * -42.23000000  *
   820       N         55.49500000  *  149.42600000  * -44.18900000  *
   821       H         56.35000000  *  149.26300000  * -44.71300000  *
   822       C         54.20500000  *  149.26000000  * -44.85200000  *
   823       H         53.62600000  *  150.17500000  * -44.72500000  *
   824       C         54.41000000  *  148.98800000  * -46.34000000  *
   825       H         54.98900000  *  149.80200000  * -46.77700000  *
   826       H         55.00200000  *  148.07700000  * -46.45200000  *
   827       C         53.12600000  *  148.85300000  * -47.10800000  *
   828       C         52.23100000  *  149.92200000  * -47.18600000  *
   829       H         52.46300000  *  150.85600000  * -46.69900000  *
   830       C         51.01500000  *  149.79500000  * -47.88400000  *
   831       H         50.32500000  *  150.62800000  * -47.91800000  *
   832       C         50.69700000  *  148.60300000  * -48.50200000  *
   833       H         49.75200000  *  148.50200000  * -49.02000000  *
   834       C         51.58700000  *  147.52100000  * -48.43200000  *
   835       H         51.33500000  *  146.58300000  * -48.91200000  *
   836       C         52.79500000  *  147.65400000  * -47.73300000  *
   837       H         53.46700000  *  146.81000000  * -47.67200000  *
   838       C         53.37400000  *  148.12200000  * -44.22700000  *
   839       O         52.16900000  *  148.28300000  * -44.00900000  *
   840       N         54.01600000  *  146.98100000  * -43.96600000  *
   841       H         55.00900000  *  146.90600000  * -44.17900000  *
   842       C         53.33800000  *  145.83600000  * -43.34100000  *
   843       H         52.47600000  *  145.52800000  * -43.93400000  *
   844       C         54.29200000  *  144.65000000  * -43.17000000  *
   845       H         55.15800000  *  145.02700000  * -42.63600000  *
   846       H         53.80700000  *  143.89200000  * -42.54700000  *
   847       C         54.73100000  *  144.00400000  * -44.46100000  *
   848       H         53.84700000  *  143.61400000  * -44.95900000  *
   849       H         55.19200000  *  144.69400000  * -45.15000000  *
   850       S         55.79700000  *  142.58100000  * -44.15400000  *
   851       C         57.05400000  *  143.29200000  * -43.18800000  *
   852       H         56.67800000  *  143.65800000  * -42.23500000  *
   853       H         57.80700000  *  142.53400000  * -42.98200000  *
   854       H         57.44300000  *  144.07900000  * -43.80900000  *
   855       C         52.84400000  *  146.26000000  * -41.95900000  *
   856       O         51.68200000  *  146.03200000  * -41.61400000  *
   857       N         53.72600000  *  146.88400000  * -41.17900000  *
   858       H         54.70100000  *  146.95700000  * -41.45300000  *
   859       C         53.34300000  *  147.35100000  * -39.84600000  *
   860       H         53.03400000  *  146.49700000  * -39.23800000  *
   861       C         54.50500000  *  148.07700000  * -39.15700000  *
   862       H         54.94100000  *  148.81500000  * -39.83000000  *
   863       H         54.12400000  *  148.60600000  * -38.28400000  *
   864       C         55.58400000  *  147.11500000  * -38.68500000  *
   865       O         55.26200000  *  145.90900000  * -38.57600000  *
   866       O         56.73300000  *  147.55200000  * -38.41700000  *
   867       C         52.15000000  *  148.27900000  * -39.96300000  *
   868       O         51.20300000  *  148.18000000  * -39.18700000  *
   869       N         52.18300000  *  149.16200000  * -40.95500000  *
   870       H         53.01600000  *  149.23700000  * -41.51800000  *
   871       C         51.08600000  *  150.10000000  * -41.17300000  *
   872       H         50.93100000  *  150.67400000  * -40.25800000  *
   873       C         51.42800000  *  151.06800000  * -42.31500000  *
   874       H         51.45500000  *  150.53900000  * -43.26600000  *
   875       H         50.66000000  *  151.83800000  * -42.36800000  *
   876       H         52.39300000  *  151.53600000  * -42.12800000  *
   877       C         49.78900000  *  149.37000000  * -41.49900000  *
   878       O         48.71100000  *  149.83600000  * -41.15600000  *
   879       N         49.90500000  *  148.22900000  * -42.16400000  *
   880       H         50.83800000  *  147.88500000  * -42.38200000  *
   881       C         48.74000000  *  147.45400000  * -42.57500000  *
   882       H         47.85700000  *  148.08600000  * -42.62800000  *
   883       H         48.90600000  *  147.02300000  * -43.58600000  *
   884       H         48.52600000  *  146.61900000  * -41.88800000  *
   885       H         72.54500000  *  137.05800000  * -55.15200000  *
   886       C         72.38600000  *  137.90500000  * -54.47400000  *
   887       O         73.28300000  *  138.71900000  * -54.28600000  *
   888       N         71.20100000  *  138.01500000  * -53.89800000  *
   889       H         70.47300000  *  137.31400000  * -54.05700000  *
   890       C         70.96800000  *  139.10000000  * -52.94900000  *
   891       H         71.50000000  *  140.00600000  * -53.22900000  *
   892       C         69.47700000  *  139.40500000  * -52.82500000  *
   893       H         69.09300000  *  139.71900000  * -53.79200000  *
   894       H         68.93000000  *  138.50600000  * -52.53300000  *
   895       C         69.17800000  *  140.45400000  * -51.81200000  *
   896       N         69.23000000  *  140.42300000  * -50.45900000  *
   897       C         68.94700000  *  141.69100000  * -50.01400000  *
   898       H         68.96900000  *  142.01200000  * -48.98400000  *
   899       N         68.72400000  *  142.47200000  * -51.05500000  *
   900       H         68.47200000  *  143.44500000  * -51.00700000  *
   901       C         68.85400000  *  141.75000000  * -52.15500000  *
   902       H         68.77100000  *  142.12600000  * -53.16500000  *
   903       C         71.52100000  *  138.65700000  * -51.58300000  *
   904       O         72.28000000  *  139.38000000  * -50.94700000  *
   905       N         71.11400000  *  137.47100000  * -51.14500000  *
   906       H         70.37100000  *  137.01600000  * -51.66500000  *
   907       C         71.55500000  *  136.88000000  * -49.87700000  *
   908       H         71.18200000  *  135.84900000  * -49.87900000  *
   909       C         73.07600000  *  136.85300000  * -49.83700000  *
   910       H         73.53100000  *  137.83300000  * -49.86900000  *
   911       H         73.36600000  *  136.47900000  * -48.85100000  *
   912       C         73.64700000  *  135.85900000  * -50.81700000  *
   913       H         73.29800000  *  134.87100000  * -50.67200000  *
   914       H         73.21600000  *  136.10500000  * -51.78700000  *
   915       C         75.11700000  *  136.08400000  * -50.99900000  *
   916       H         75.61200000  *  135.95400000  * -50.03300000  *
   917       H         75.49500000  *  135.33200000  * -51.69500000  *
   918       N         75.35800000  *  137.42700000  * -51.50600000  *
   919       H         74.62100000  *  138.12700000  * -51.38200000  *
   920       C         76.54800000  *  137.85900000  * -51.89000000  *
   921       N         77.59300000  *  137.04400000  * -51.81500000  *
   922       H         77.44700000  *  136.21200000  * -51.26800000  *
   923       H         78.49900000  *  137.44300000  * -51.92100000  *
   924       N         76.69000000  *  139.09300000  * -52.35600000  *
   925       H         75.86000000  *  139.69200000  * -52.33800000  *
   926       H         77.56200000  *  139.47800000  * -52.67100000  *
   927       C         71.03700000  *  137.42400000  * -48.54200000  *
   928       O         71.18700000  *  136.76800000  * -47.50900000  *
   929       N         70.43700000  *  138.60400000  * -48.51600000  *
   930       H         70.32800000  *  139.16900000  * -49.34700000  *
   931       C         69.93700000  *  139.07600000  * -47.23100000  *
   932       H         69.76500000  *  138.24900000  * -46.54100000  *
   933       C         70.93500000  *  140.04200000  * -46.56200000  *
   934       H         71.90900000  *  139.56600000  * -46.50900000  *
   935       H         71.04400000  *  140.94300000  * -47.17900000  *
   936       C         70.51300000  *  140.42800000  * -45.14700000  *
   937       O         70.17200000  *  139.51500000  * -44.35500000  *
   938       O         70.51000000  *  141.64400000  * -44.82500000  *
   939       C         68.58700000  *  139.73400000  * -47.37800000  *
   940       O         68.35000000  *  140.81000000  * -46.83500000  *
   941       N         67.68700000  *  139.08300000  * -48.11000000  *
   942       H         67.94300000  *  138.20800000  * -48.54500000  *
   943       C         66.35900000  *  139.64900000  * -48.29900000  *
   944       H         66.47700000  *  140.66700000  * -48.65900000  *
   945       C         65.54600000  *  138.81300000  * -49.28800000  *
   946       H         65.58300000  *  137.78400000  * -48.94500000  *
   947       H         64.50600000  *  139.14000000  * -49.25500000  *
   948       C         66.02700000  *  138.85500000  * -50.73600000  *
   949       H         67.06400000  *  138.52800000  * -50.78200000  *
   950       C         65.17300000  *  137.91700000  * -51.58300000  *
   951       H         64.15900000  *  138.30500000  * -51.68800000  *
   952       H         65.63400000  *  137.80700000  * -52.55000000  *
   953       H         65.13400000  *  136.93500000  * -51.11000000  *
   954       C         65.92100000  *  140.27700000  * -51.26400000  *
   955       H         66.42000000  *  140.99600000  * -50.63300000  *
   956       H         66.44200000  *  140.27500000  * -52.20900000  *
   957       H         64.88200000  *  140.56100000  * -51.39700000  *
   958       C         65.59400000  *  139.73400000  * -46.98200000  *
   959       O         65.58600000  *  138.79200000  * -46.16600000  *
   960       N         64.95200000  *  140.85300000  * -46.74900000  *
   961       H         64.96100000  *  141.58400000  * -47.44700000  *
   962       C         64.15600000  *  141.05500000  * -45.55400000  *
   963       H         63.54100000  *  140.16500000  * -45.42500000  *
   964       C         65.02600000  *  141.20800000  * -44.28800000  *
   965       H         64.38500000  *  141.28100000  * -43.40900000  *
   966       H         65.60900000  *  140.29500000  * -44.16500000  *
   967       C         65.97900000  *  142.40800000  * -44.28800000  *
   968       H         66.40500000  *  142.54700000  * -45.28000000  *
   969       H         65.43600000  *  143.30700000  * -43.99900000  *
   970       C         67.11700000  *  142.12600000  * -43.30200000  *
   971       H         66.70200000  *  141.85700000  * -42.32800000  *
   972       H         67.68900000  *  141.27700000  * -43.68600000  *
   973       C         68.04100000  *  143.33400000  * -43.13700000  *
   974       H         68.16400000  *  143.82600000  * -44.10700000  *
   975       H         67.56400000  *  144.04800000  * -42.45500000  *
   976       N         69.36200000  *  142.89800000  * -42.61400000  *
   977       H         69.85800000  *  142.34700000  * -43.33000000  *
   978       H         69.93300000  *  143.69300000  * -42.35600000  *
   979       H         69.25000000  *  142.32000000  * -41.79200000  *
   980       C         63.26200000  *  142.22600000  * -45.84200000  *
   981       O         63.62200000  *  143.07000000  * -46.66200000  *
   982       N         62.11200000  *  142.30300000  * -45.18600000  *
   983       C         61.62600000  *  141.34600000  * -44.17100000  *
   984       H         62.10000000  *  141.53200000  * -43.20900000  *
   985       H         61.74500000  *  140.31100000  * -44.47600000  *
   986       C         60.16400000  *  141.66900000  * -44.09500000  *
   987       H         59.73700000  *  141.34900000  * -43.14300000  *
   988       H         59.63700000  *  141.20600000  * -44.93200000  *
   989       C         60.16000000  *  143.18900000  * -44.24800000  *
   990       H         60.51600000  *  143.64900000  * -43.32100000  *
   991       H         59.20200000  *  143.56500000  * -44.57400000  *
   992       C         61.14500000  *  143.38000000  * -45.40300000  *
   993       H         60.63400000  *  143.20500000  * -46.34500000  *
   994       C         61.77100000  *  144.77100000  * -45.44800000  *
   995       O         61.39200000  *  145.58400000  * -46.27300000  *
   996       N         62.72600000  *  145.08100000  * -44.55400000  *
   997       H         62.96400000  *  144.38700000  * -43.86200000  *
   998       C         63.45900000  *  146.36900000  * -44.52100000  *
   999       H         62.74100000  *  147.18200000  * -44.39900000  *
  1000       C         64.43900000  *  146.39900000  * -43.33400000  *
  1001       H         65.13400000  *  145.56500000  * -43.43500000  *
  1002       H         65.02100000  *  147.32100000  * -43.39200000  *
  1003       C         63.78300000  *  146.35200000  * -41.94600000  *
  1004       H         63.12400000  *  147.21400000  * -41.84100000  *
  1005       H         63.18800000  *  145.44600000  * -41.84800000  *
  1006       C         64.82300000  *  146.36100000  * -40.82300000  *
  1007       O         65.86100000  *  145.71500000  * -40.89100000  *
  1008       N         64.59000000  *  147.07300000  * -39.74200000  *
  1009       H         65.28600000  *  147.06700000  * -39.01000000  *
  1010       H         63.76300000  *  147.64400000  * -39.66300000  *
  1011       C         64.27800000  *  146.66400000  * -45.79600000  *
  1012       O         64.48300000  *  147.82000000  * -46.15700000  *
  1013       N         64.75400000  *  145.61800000  * -46.47500000  *
  1014       H         64.46300000  *  144.69900000  * -46.17500000  *
  1015       C         65.53200000  *  145.67900000  * -47.71300000  *
  1016       H         66.09300000  *  146.61300000  * -47.74900000  *
  1017       C         66.54900000  *  144.50800000  * -47.73200000  *
  1018       H         66.05200000  *  143.58100000  * -47.46200000  *
  1019       H         66.93000000  *  144.38200000  * -48.74300000  *
  1020       C         67.76900000  *  144.71000000  * -46.84000000  *
  1021       O         68.04400000  *  145.79000000  * -46.34400000  *
  1022       N         68.55000000  *  143.67900000  * -46.59700000  *
  1023       H         69.42400000  *  143.84900000  * -46.12500000  *
  1024       H         68.32000000  *  142.72800000  * -46.86900000  *
  1025       C         64.63200000  *  145.69200000  * -48.96600000  *
  1026       O         65.15700000  *  145.59700000  * -50.07300000  *
  1027       N         63.30000000  *  145.80300000  * -48.83400000  *
  1028       H         62.89500000  *  145.87300000  * -47.90900000  *
  1029       C         62.40600000  *  145.84500000  * -49.97900000  *
  1030       H         62.94700000  *  145.74800000  * -50.91900000  *
  1031       C         61.36900000  *  144.72100000  * -49.88900000  *
  1032       H         60.76900000  *  144.86100000  * -48.99200000  *
  1033       H         60.74400000  *  144.79800000  * -50.77200000  *
  1034       C         62.03600000  *  143.32400000  * -49.85900000  *
  1035       H         62.67100000  *  143.24000000  * -48.98800000  *
  1036       C         61.00200000  *  142.26000000  * -49.77100000  *
  1037       H         60.24600000  *  142.42800000  * -50.53400000  *
  1038       H         61.44700000  *  141.27100000  * -49.89000000  *
  1039       H         60.52000000  *  142.31900000  * -48.79800000  *
  1040       C         62.89500000  *  143.12600000  * -51.08400000  *
  1041       H         63.82900000  *  143.66800000  * -50.95600000  *
  1042       H         63.12900000  *  142.06900000  * -51.20900000  *
  1043       H         62.39300000  *  143.49200000  * -51.96600000  *
  1044       C         61.76300000  *  147.21800000  * -49.95200000  *
  1045       O         61.15000000  *  147.60200000  * -48.96600000  *
  1046       N         61.89200000  *  147.98300000  * -51.02800000  *
  1047       H         62.38300000  *  147.61200000  * -51.83600000  *
  1048       C         61.43500000  *  149.37100000  * -51.06300000  *
  1049       H         61.05900000  *  149.67700000  * -50.08800000  *
  1050       C         62.58800000  *  150.29300000  * -51.42900000  *
  1051       H         62.90500000  *  150.06400000  * -52.44800000  *
  1052       H         62.20800000  *  151.31200000  * -51.39700000  *
  1053       C         63.80100000  *  150.18600000  * -50.50500000  *
  1054       H         64.24100000  *  149.19400000  * -50.58600000  *
  1055       C         64.79700000  *  151.21800000  * -50.99300000  *
  1056       H         64.44100000  *  152.20700000  * -50.72100000  *
  1057       H         65.76500000  *  151.02100000  * -50.54700000  *
  1058       H         64.89700000  *  151.18800000  * -52.07200000  *
  1059       C         63.47400000  *  150.46600000  * -49.04000000  *
  1060       H         62.86500000  *  149.65700000  * -48.64400000  *
  1061       H         64.38800000  *  150.51200000  * -48.45500000  *
  1062       H         62.93300000  *  151.40700000  * -48.94400000  *
  1063       C         60.31100000  *  149.54700000  * -52.05900000  *
  1064       O         60.40000000  *  149.07800000  * -53.18000000  *
  1065       N         59.26800000  *  150.25600000  * -51.67700000  *
  1066       H         59.36500000  *  150.76300000  * -50.80000000  *
  1067       C         58.08300000  *  150.44700000  * -52.50800000  *
  1068       H         58.17300000  *  149.92400000  * -53.45700000  *
  1069       C         56.81900000  *  149.90600000  * -51.78600000  *
  1070       H         55.94300000  *  150.08700000  * -52.41500000  *
  1071       C         56.95000000  *  148.40400000  * -51.54300000  *
  1072       H         57.75300000  *  148.18300000  * -50.83300000  *
  1073       H         56.01300000  *  148.00400000  * -51.15200000  *
  1074       H         57.15800000  *  147.91500000  * -52.48900000  *
  1075       C         56.64700000  *  150.60600000  * -50.43300000  *
  1076       H         57.48200000  *  150.38000000  * -49.77500000  *
  1077       H         56.60500000  *  151.68300000  * -50.57600000  *
  1078       C         55.37000000  *  150.22200000  * -49.68600000  *
  1079       H         55.48900000  *  149.24800000  * -49.22200000  *
  1080       H         55.17000000  *  150.96500000  * -48.91000000  *
  1081       H         54.52900000  *  150.16800000  * -50.38500000  *
  1082       C         57.87200000  *  151.93000000  * -52.81700000  *
  1083       O         58.38200000  *  152.79400000  * -52.10000000  *
  1084       N         57.14900000  *  152.22000000  * -53.89700000  *
  1085       H         56.70500000  *  151.48200000  * -54.43300000  *
  1086       C         56.84100000  *  153.60200000  * -54.22700000  *
  1087       H         57.16800000  *  154.27800000  * -53.43100000  *
  1088       C         57.50400000  *  154.05300000  * -55.54100000  *
  1089       H         57.21800000  *  155.07000000  * -55.80500000  *
  1090       H         58.58200000  *  154.04400000  * -55.38800000  *
  1091       C         57.19300000  *  153.14600000  * -56.70100000  *
  1092       O         56.13500000  *  152.53500000  * -56.76400000  *
  1093       N         58.11500000  *  153.07200000  * -57.64100000  *
  1094       H         57.83300000  *  152.61700000  * -58.48600000  *
  1095       H         58.88600000  *  153.71500000  * -57.62100000  *
  1096       C         55.33100000  *  153.75800000  * -54.32100000  *
  1097       O         54.57600000  *  152.79900000  * -54.11400000  *
  1098       N         54.88500000  *  154.97100000  * -54.62100000  *
  1099       H         55.52100000  *  155.73600000  * -54.79200000  *
  1100       C         53.46400000  *  155.24700000  * -54.72300000  *
  1101       H         52.92700000  *  154.82600000  * -53.87200000  *
  1102       C         53.20900000  *  156.78000000  * -54.75500000  *
  1103       H         52.16900000  *  156.98000000  * -55.02600000  *
  1104       C         53.47800000  *  157.39700000  * -53.41000000  *
  1105       H         54.52100000  *  157.25500000  * -53.13000000  *
[...]
 1005  H   0.83173
 1006  C   1.06565   0.80234   0.72874   0.79838
 1007  O   1.87766   1.40072   1.56659   1.84861
 1008  N   1.52724   1.33362   1.47452   1.26701
 1009  H   0.65775
 1010  H   0.66325
 1011  C   1.08324   0.75586   0.78143   0.81555
 1012  O   1.88457   1.65899   1.31192   1.73369
 1013  N   1.55114   1.50839   1.20217   1.30128
 1014  H   0.66622
 1015  C   1.07182   0.94601   1.09548   0.82129
 1016  H   0.80502
 1017  C   1.07068   1.05025   1.09003   1.16294
 1018  H   0.83121
 1019  H   0.79765
 1020  C   1.05857   0.80351   0.76591   0.75805
 1021  O   1.87593   1.77935   1.40115   1.61268
 1022  N   1.53141   1.30511   1.19696   1.58978
 1023  H   0.66268
 1024  H   0.65513
 1025  C   1.08736   0.78501   0.71948   0.85309
 1026  O   1.87856   1.76554   1.61061   1.38292
 1027  N   1.54104   1.12655   1.66437   1.18338
 1028  H   0.65345
 1029  C   1.06987   0.96895   0.97973   0.97467
 1030  H   0.81151
 1031  C   1.06731   1.06460   0.99778   1.17274
 1032  H   0.83724
 1033  H   0.84825
 1034  C   1.04101   1.01183   0.94633   1.06222
 1035  H   0.85559
 1036  C   1.04919   1.12592   1.11849   1.17071
 1037  H   0.84504
 1038  H   0.84907
 1039  H   0.86564
 1040  C   1.05155   1.14180   1.17174   1.09910
 1041  H   0.84427
 1042  H   0.85774
 1043  H   0.85009
 1044  C   1.07619   0.74998   0.84293   0.75597
 1045  O   1.87198   1.53754   1.79677   1.44574
 1046  N   1.54537   1.55425   1.17296   1.24771
 1047  H   0.64538
 1048  C   1.06414   0.98814   0.82794   1.10174
 1049  H   0.81167
 1050  C   1.06417   1.02559   1.10498   1.12619
 1051  H   0.84595
 1052  H   0.84145
 1053  C   1.04751   0.96913   1.07136   0.96740
 1054  H   0.86526
 1055  C   1.05345   1.12918   1.13016   1.16290
 1056  H   0.84637
 1057  H   0.84927
 1058  H   0.85824
 1059  C   1.05421   1.17570   1.17579   1.04714
 1060  H   0.84011
 1061  H   0.85284
 1062  H   0.84814
 1063  C   1.07352   0.79924   0.74430   0.81673
 1064  O   1.86773   1.83097   1.62642   1.34495
 1065  N   1.54078   1.19448   1.46447   1.29731
 1066  H   0.64305
 1067  C   1.07614   0.88947   1.00854   1.04164
 1068  H   0.81044
 1069  C   1.06426   1.01544   0.99294   1.02025
 1070  H   0.85076
 1071  C   1.05462   1.18101   1.03460   1.17644
 1072  H   0.84299
 1073  H   0.84559
 1074  H   0.85351
 1075  C   1.05412   1.07048   1.12008   1.03152
 1076  H   0.84339
 1077  H   0.86062
 1078  C   1.05244   1.08948   1.15767   1.13191
 1079  H   0.84848
 1080  H   0.87746
 1081  H   0.84764
 1082  C   1.08535   0.74331   0.88553   0.74337
 1083  O   1.88675   1.56915   1.57611   1.55782
 1084  N   1.54250   1.50632   1.14447   1.33645
 1085  H   0.64478
 1086  C   1.06283   0.97050   0.88314   1.04038
 1087  H   0.79800
 1088  C   1.07208   1.18052   1.12482   1.02200
 1089  H   0.81198
 1090  H   0.80613
 1091  C   1.06128   0.75983   0.76921   0.82272
 1092  O   1.87988   1.35735   1.57121   1.83653
 1093  N   1.53439   1.29878   1.49578   1.27232
 1094  H   0.67303
 1095  H   0.66442
 1096  C   1.08276   0.88419   0.75739   0.70985
 1097  O   1.88742   1.65590   1.47032   1.59269
 1098  N   1.54010   1.14442   1.19851   1.67135
 1099  H   0.66223
 1100  C   1.08527   0.83810   1.05688   1.08037
 1101  H   0.80430
 1102  C   1.08415   0.99050   0.86788   0.88999
 1103  H   0.84745
 1104  C   1.05389   1.18512   1.17978   1.05532
 1105  H   0.84059
 1106  H   0.82483
 1107  H   0.82904
 1108  O   1.84904   1.59159   1.82278   1.34452
 1109  H   0.64339
 1110  C   1.07382   0.78873   0.75501   0.82461
 1111  O   1.87776   1.28049   1.68965   1.84924
 1112  N   1.53348   1.19415   1.53474   1.21085
 1113  H   0.66618
 1114  C   1.05705   1.15361   1.13324   0.89361
 1115  H   0.83550
 1116  H   0.83822
 1117  H   0.83551
 1118  H   0.83999
 1119  C   1.10501   0.75528   0.73551   0.91351
 1120  O   1.88318   1.71077   1.59622   1.48250
 1121  N   1.54489   1.42814   1.34571   1.20838
 1122  H   0.65366
 1123  C   1.08084   0.93062   1.08486   0.93131
 1124  H   0.80875
 1125  C   1.07309   1.07901   0.95352   0.98253
 1126  H   0.84409
 1127  C   1.05811   1.18700   1.08410   1.12925
 1128  H   0.84369
 1129  H   0.84849
 1130  H   0.85225
 1131  C   1.05415   1.07568   1.13494   1.01855
 1132  H   0.85387
 1133  H   0.85395
 1134  C   1.04915   1.14385   1.15080   1.09058
 1135  H   0.85020
 1136  H   0.85964
 1137  H   0.84940
 1138  C   1.07226   0.84186   0.73649   0.77743
 1139  O   1.87771   1.89054   1.52113   1.39095
 1140  N   1.54498   1.10265   1.52661   1.33587
 1141  H   0.63178
 1142  C   1.06985   0.84627   1.05323   1.03781
 1143  H   0.81793
 1144  C   1.06006   1.09282   1.04634   1.09602
 1145  H   0.83696
 1146  H   0.84649
 1147  C   1.05104   1.08549   1.04434   1.07788
 1148  H   0.84989
 1149  H   0.84478
 1150  C   1.05941   1.08208   1.05495   1.09858
 1151  H   0.84084
 1152  H   0.83244
 1153  C   1.07888   1.02200   0.99728   1.07414
 1154  H   0.81142
 1155  H   0.83358
 1156  N   1.45918   1.23077   1.22908   1.25636
 1157  H   0.69520
 1158  H   0.70030
 1159  H   0.68634
 1160  C   1.07835   0.77978   0.75039   0.82546
 1161  O   1.88112   1.77258   1.69289   1.29067
 1162  N   1.54479   1.32884   1.42541   1.23089
 1163  H   0.64035
 1164  C   1.07025   0.91823   0.95737   1.02931
 1165  H   0.83159
 1166  C   1.06274   1.10017   1.01948   1.13288
 1167  H   0.83529
 1168  H   0.84491
 1169  C   1.05370   1.07056   0.96093   0.96356
 1170  H   0.85956
 1171  C   1.06224   1.16614   1.13942   1.09233
 1172  H   0.85192
 1173  H   0.84916
 1174  H   0.85274
 1175  C   1.05740   1.18271   1.13694   1.08869
 1176  H   0.85334
 1177  H   0.84828
 1178  H   0.85428
 1179  C   1.08516   0.79157   0.79860   0.75841
 1180  O   1.88081   1.63528   1.59962   1.53820
 1181  N   1.54374   1.36939   1.43696   1.15981
 1182  H   0.64552
 1183  C   1.06690   0.91428   0.92828   1.04828
 1184  H   0.83245
 1185  C   1.05949   1.16344   1.08766   1.15345
 1186  H   0.82095
 1187  H   0.83284
 1188  H   0.82779
 1189  C   1.08804   0.78766   0.78433   0.74740
 1190  O   1.87218   1.84260   1.36156   1.59455
 1191  N   1.54711   1.17243   1.32354   1.49424
 1192  H   0.67285
 1193  C   1.07619   0.87645   1.08230   0.93099
 1194  H   0.81153
 1195  C   1.07977   1.14313   1.18129   1.00674
 1196  H   0.80939
 1197  H   0.83043
 1198  C   1.07357   0.73843   0.69981   0.72569
 1199  O   1.88476   1.83334   1.52331   1.49207
 1200  O   1.87285   1.59350   1.56089   1.83011
 1201  C   1.09158   0.82102   0.79447   0.75122
 1202  O   1.88801   1.27977   1.80341   1.55831
 1203  N   1.56792   1.29398   1.17021   1.54618
 1204  H   0.68139
 1205  C   1.07948   1.01939   0.91826   0.95321
 1206  H   0.83900
 1207  C   1.05573   1.07721   1.20352   0.96275
 1208  H   0.81267
 1209  H   0.82000
 1210  C   1.07481   0.97398   0.97724   0.96966
 1211  C   1.09013   1.04124   1.04128   1.01405
 1212  H   0.83939
 1213  C   1.08872   0.98512   1.06190   1.01016
 1214  H   0.84196
 1215  C   1.08747   1.05972   0.99130   1.03192
 1216  H   0.84748
 1217  C   1.08932   1.03681   1.03660   0.98976
 1218  H   0.83203
 1219  C   1.08677   0.98699   1.06334   1.02406
 1220  H   0.84099
 1221  C   1.09013   0.80323   0.77334   0.76293
 1222  O   1.88555   1.44229   1.55757   1.71290
 1223  N   1.53990   1.41503   1.43964   1.13767
 1224  H   0.68901
 1225  C   1.06864   0.98886   1.06925   0.98037
 1226  H   0.81338
 1227  H   0.80516
 1228  C   1.07940   0.82812   0.77899   0.70465
 1229  O   1.87702   1.84058   1.32403   1.61004
 1230  N   1.55823   1.30049   1.23399   1.44850
 1231  H   0.67286
 1232  C   1.07772   0.89817   1.03283   0.96928
 1233  H   0.83212
 1234  C   1.06798   1.11404   0.95085   1.17396
 1235  H   0.84100
 1236  H   0.82850
 1237  C   1.05171   1.03162   0.96007   1.01176
 1238  H   0.86316
 1239  C   1.05595   1.16835   1.06874   1.16311
 1240  H   0.85835
 1241  H   0.84249
 1242  H   0.85691
 1243  C   1.05565   1.17205   1.18921   1.04510
 1244  H   0.84146
 1245  H   0.83978
 1246  H   0.85753
 1247  C   1.09513   0.85767   0.76631   0.72661
 1248  O   1.88123   1.32461   1.78611   1.59353
 1249  N   1.58212   1.28185   1.23291   1.52129
 1250  H   0.66067
 1251  C   1.06853   0.96474   0.99734   0.95375
 1252  H   0.83690
 1253  C   1.05864   1.13957   1.09721   1.17447
 1254  H   0.84384
 1255  H   0.80979
 1256  H   0.81041
 1257  C   1.07573   0.83430   0.75254   0.78171
 1258  O   1.88396   1.49936   1.59910   1.64934
 1259  N   1.54297   1.31147   1.51219   1.14401
 1260  H   0.67617
 1261  C   1.06251   0.92409   1.14579   1.10588
 1262  H   0.82624
 1263  H   0.82946
 1264  H   0.83899
 1265  H   0.84090
 1266  C   1.10485   0.72479   0.79435   0.87721
 1267  O   1.88387   1.53275   1.36167   1.88310
 1268  N   1.54285   1.48780   1.35142   1.14856
 1269  H   0.67718
 1270  C   1.07288   1.11764   0.96775   0.82286
 1271  H   0.80305
 1272  C   1.05750   1.08938   1.02703   1.14976
 1273  H   0.83914
 1274  H   0.82091
 1275  C   1.06419   0.97798   0.94990   0.96820
 1276  C   1.08295   1.01960   0.99395   1.05894
 1277  H   0.83916
 1278  C   1.08253   1.04697   1.02765   0.99778
 1279  H   0.84426
 1280  C   1.08141   1.00630   1.05580   1.02560
 1281  H   0.84917
 1282  C   1.08072   1.02450   1.00348   1.05496
 1283  H   0.85439
 1284  C   1.08293   1.05991   1.02697   0.99670
 1285  H   0.84069
 1286  C   1.08015   0.76644   0.78601   0.79865
 1287  O   1.88390   1.53889   1.67999   1.53322
 1288  N   1.53641   1.17554   1.34805   1.43210
 1289  H   0.67362
 1290  C   1.05813   1.14256   0.97633   0.99791
 1291  H   0.81436
 1292  H   0.78766
 1293  C   1.07324   0.78383   0.75140   0.80158
 1294  O   1.87434   1.55108   1.39424   1.84423
 1295  N   1.53538   1.40755   1.37342   1.17676
 1296  H   0.64933
 1297  C   1.07460   1.00323   1.20015   0.87787
 1298  H   0.80984
 1299  H   0.79373
 1300  C   1.08151   0.77437   0.74545   0.80718
 1301  O   1.88287   1.52190   1.53291   1.73137
 1302  N   1.56490   1.44466   1.16634   1.26710
 1303  C   1.07050   1.06922   0.86857   1.05611
 1304  H   0.83732
 1305  H   0.83924
 1306  C   1.05715   1.04724   1.13714   1.05942
 1307  H   0.84573
 1308  H   0.80736
 1309  C   1.06099   1.08163   0.98350   1.17213
 1310  H   0.83496
 1311  H   0.81971
 1312  C   1.07350   1.05245   1.00089   0.86775
 1313  H   0.81335
 1314  C   1.08823   0.76338   0.76826   0.82853
 1315  O   1.88394   1.42703   1.43556   1.88329
 1316  N   1.54313   1.40355   1.48386   1.11747
 1317  H   0.64350
 1318  C   1.08216   1.04958   1.11403   0.89136
 1319  H   0.80106
 1320  H   0.78758
 1321  C   1.08828   0.82549   0.73031   0.77832
 1322  O   1.88490   1.70334   1.72978   1.32972
 1323  N   1.55104   1.23223   1.41114   1.34478
 1324  H   0.68797
 1325  C   1.07567   0.86019   1.06400   0.97855
 1326  H   0.82218
 1327  C   1.05961   1.16889   1.07562   0.97651
 1328  H   0.83468
 1329  H   0.83904
 1330  C   1.05818   1.13840   1.07468   1.02394
 1331  H   0.82457
 1332  H   0.87168
 1333  C   1.06375   1.08747   1.10005   0.78145
 1334  H   0.85060
 1335  H   0.81928
 1336  N   1.53281   1.62690   1.28990   1.09340
 1337  H   0.64876
 1338  C   0.97599   0.83627   0.80290   0.79452
 1339  N   1.50145   1.56338   1.25854   1.24811
 1340  H   0.67470
 1341  H   0.62637
 1342  N   1.50405   1.55706   1.35352   1.14114
 1343  H   0.64456
 1344  H   0.63723
 1345  C   1.08253   0.75725   0.77369   0.84379
 1346  O   1.88769   1.48031   1.64687   1.56773
 1347  N   1.54270   1.54540   1.19732   1.23976
 1348  H   0.67310
 1349  C   1.08991   1.00045   1.00993   0.92010
 1350  H   0.80102
 1351  C   1.08527   0.92971   0.92467   0.87623
 1352  H   0.85549
 1353  C   1.05854   1.09868   1.12796   1.20510
 1354  H   0.82503
 1355  H   0.83249
 1356  H   0.83090
 1357  O   1.84272   1.58521   1.64158   1.56940
 1358  H   0.62318
 1359  C   1.07905   0.81134   0.79085   0.76088
 1360  O   1.88690   1.54013   1.79328   1.37383
 1361  N   1.55261   1.32699   1.29562   1.37664
 1362  H   0.65199
 1363  C   1.07398   0.98871   0.92701   0.99363
 1364  H   0.81731
 1365  C   1.05783   1.09534   1.06845   1.08707
 1366  H   0.84124
 1367  H   0.82750
 1368  C   1.06176   0.97096   0.97493   1.05467
 1369  C   1.08239   0.97398   1.07904   0.99970
 1370  H   0.84577
 1371  C   1.08446   1.08438   0.99532   1.00594
 1372  H   0.80146
 1373  C   1.06579   0.82544   0.89660   0.91844
 1374  O   1.84116   1.47112   1.54206   1.69700
 1375  H   0.63953
 1376  C   1.07423   0.98975   1.09152   1.06569
 1377  H   0.84640
 1378  C   1.08139   1.06450   0.99932   0.99927
 1379  H   0.85793
 1380  C   1.08191   0.77642   0.73408   0.82092
 1381  O   1.88477   1.39038   1.55601   1.82921
 1382  N   1.55036   1.20060   1.60172   1.14817
 1383  H   0.66093
 1384  C   1.08720   1.11694   1.03477   0.83739
 1385  H   0.82122
 1386  C   1.08256   0.83228   0.89087   1.00026
 1387  H   0.86796
 1388  C   1.05718   1.09859   1.14104   1.18961
 1389  H   0.83120
 1390  H   0.84535
 1391  H   0.84164
 1392  O   1.84702   1.32386   1.76610   1.66699
 1393  H   0.61660
 1394  C   1.08206   0.82817   0.76395   0.79194
 1395  O   1.88731   1.29199   1.70689   1.67715
 1396  N   1.54288   1.22794   1.27096   1.47577
 1397  H   0.64932
 1398  C   1.07063   0.98358   1.04050   1.07613
 1399  H   0.84411
 1400  H   0.80866
 1401  C   1.07035   0.85098   0.72014   0.75159
 1402  O   1.88496   1.70089   1.45760   1.55947
 1403  N   1.55349   1.14713   1.51376   1.33256
 1404  H   0.67983
 1405  C   1.07052   0.82931   0.98690   1.12817
 1406  H   0.81469
 1407  C   1.05336   1.16422   0.99084   1.05295
 1408  H   0.83922
 1409  H   0.83690
 1410  C   1.05972   1.20575   1.01155   1.13792
 1411  H   0.84211
 1412  H   0.82555
 1413  C   1.06700   0.72306   0.72066   0.72770
 1414  O   1.88762   1.47465   1.82402   1.63697
 1415  O   1.88506   1.51673   1.58628   1.81379
 1416  C   1.08676   0.77113   0.86251   0.75461
 1417  O   1.88734   1.64844   1.65290   1.40921
 1418  N   1.54585   1.31033   1.19206   1.47865
 1419  H   0.65335
 1420  C   1.07213   1.06260   0.88111   1.00744
 1421  H   0.84340
 1422  C   1.05449   1.01882   1.03241   0.97116
 1423  H   0.83653
 1424  C   1.05589   1.17742   1.04857   1.19321
 1425  H   0.84526
 1426  H   0.83588
 1427  H   0.83810
 1428  C   1.05455   1.18127   1.16753   1.06126
 1429  H   0.84086
 1430  H   0.83987
 1431  H   0.85182
 1432  C   1.07572   0.77111   0.73158   0.84229
 1433  O   1.88369   1.36388   1.63745   1.76944
 1434  N   1.53826   1.27316   1.47287   1.21108
 1435  H   0.66878
 1436  C   1.07711   1.00708   1.05452   0.86822
 1437  H   0.82254
 1438  C   1.06066   1.02663   1.01612   0.97695
 1439  H   0.84018
 1440  C   1.05419   1.18421   1.09812   1.12144
 1441  H   0.84121
 1442  H   0.84051
 1443  H   0.85072
 1444  C   1.05733   1.18978   1.16624   1.05227
 1445  H   0.84665
 1446  H   0.83518
 1447  H   0.83909
 1448  C   1.08155   0.80685   0.78623   0.75096
 1449  O   1.88312   1.81177   1.47372   1.46030
 1450  N   1.53598   1.23693   1.43137   1.31661
 1451  H   0.66470
 1452  C   1.07961   0.90412   0.96820   1.14844
 1453  H   0.80530
 1454  C   1.07967   0.93555   0.82474   0.98285
 1455  H   0.86726
 1456  C   1.05743   1.09486   1.13569   1.19626
 1457  H   0.82491
 1458  H   0.82222
 1459  H   0.84120
 1460  O   1.84759   1.47776   1.49379   1.78184
 1461  H   0.64870
 1462  C   1.07054   0.75366   0.82638   0.79778
 1463  O   1.88046   1.50753   1.88275   1.36464
 1464  N   1.53712   1.54998   1.12187   1.29435
 1465  H   0.65711
 1466  C   1.05411   1.16783   0.87292   1.13573
 1467  H   0.83000
 1468  H   0.83697
 1469  H   0.85131
 1470  H   0.82737
 1471  C   1.10846   0.72192   0.77568   0.90301
 1472  O   1.87917   1.50028   1.39718   1.89103
 1473  N   1.54806   1.50781   1.35866   1.13687
 1474  H   0.67052
 1475  C   1.07821   1.08309   1.04079   0.80190
 1476  H   0.80369
 1477  C   1.05903   1.13421   0.99959   1.10164
 1478  H   0.81855
 1479  H   0.82211
 1480  C   1.06602   0.97586   0.99257   1.00494
 1481  C   1.08223   0.99071   1.02507   1.00498
 1482  H   0.83751
 1483  C   1.07636   1.10503   1.04958   1.06601
 1484  H   0.82042
 1485  C   1.07251   0.88653   0.88222   0.88000
 1486  O   1.83870   1.35496   1.61294   1.73276
 1487  H   0.61920
 1488  C   1.07859   0.98867   1.09952   1.09641
 1489  H   0.82145
 1490  C   1.08808   1.07854   0.97925   0.96958
 1491  H   0.83519
 1492  C   1.08085   0.79996   0.76892   0.79198
 1493  O   1.88630   1.81389   1.69948   1.28034
 1494  N   1.53472   1.25588   1.50892   1.18461
 1495  H   0.67091
 1496  C   1.06143   0.92033   1.08955   1.16675
 1497  H   0.83440
 1498  H   0.82975
 1499  H   0.83851
 1500  H   0.82497
 1501  C   1.10799   0.78631   0.88385   0.71626
 1502  O   1.88013   1.43037   1.87071   1.50906
 1503  N   1.55064   1.37514   1.18536   1.44527
 1504  H   0.64432
 1505  C   1.07868   0.96571   0.86316   1.12896
 1506  H   0.81509
 1507  C   1.05974   0.97982   0.99669   1.07640
 1508  H   0.84634
 1509  C   1.05206   1.15828   1.06257   1.17602
 1510  H   0.84460
 1511  H   0.84453
 1512  H   0.84169
 1513  C   1.04780   1.00002   1.12973   1.08501
 1514  H   0.86678
 1515  H   0.85350
 1516  C   1.04902   1.11594   1.12959   1.14953
 1517  H   0.85865
 1518  H   0.85752
 1519  H   0.84102
 1520  C   1.07238   0.85963   0.73793   0.75018
 1521  O   1.87626   1.57616   1.55613   1.67372
 1522  N   1.54215   1.18494   1.41745   1.37456
 1523  H   0.66206
 1524  C   1.07134   0.87895   1.16323   1.10822
 1525  H   0.84317
 1526  H   0.83230
 1527  H   0.83427
 1528  H   0.82788
 1529  C   1.10750   0.84813   0.73327   0.82105
 1530  O   1.88536   1.81614   1.62613   1.36636
 1531  N   1.53779   1.25350   1.40321   1.30536
 1532  H   0.64793
 1533  C   1.05919   0.89162   1.04070   1.02445
 1534  H   0.81850
 1535  C   1.06072   1.03237   1.11495   1.11492
 1536  H   0.82475
 1537  H   0.84730
 1538  C   1.04441   0.99007   0.96312   1.05934
 1539  H   0.88191
 1540  C   1.05459   1.16285   1.06822   1.18118
 1541  H   0.83882
 1542  H   0.84760
 1543  H   0.85306
 1544  C   1.05254   1.12310   1.17323   1.10737
 1545  H   0.85719
 1546  H   0.84659
 1547  H   0.84132
 1548  C   1.07876   0.72902   0.86487   0.77476
 1549  O   1.88187   1.57551   1.45147   1.73524
 1550  N   1.54017   1.57355   1.21272   1.19378
 1551  H   0.66011
 1552  C   1.07183   1.01774   0.93541   0.96198
 1553  H   0.81139
 1554  C   1.05671   1.17084   1.07947   0.99148
 1555  H   0.82400
 1556  H   0.82629
 1557  C   1.05682   1.13002   1.08787   1.03624
 1558  H   0.85327
 1559  H   0.82391
 1560  C   1.06364   1.15821   0.94497   0.90195
 1561  H   0.81620
 1562  H   0.83557
 1563  N   1.52413   1.16142   1.42467   1.39823
 1564  H   0.63969
 1565  C   0.99141   0.79130   0.81237   0.81843
 1566  N   1.51719   1.11646   1.46806   1.48665
 1567  H   0.65572
 1568  H   0.63931
 1569  N   1.50866   1.25119   1.39998   1.41134
 1570  H   0.64195
 1571  H   0.64055
 1572  C   1.08174   0.87166   0.76990   0.74190
 1573  O   1.88674   1.61220   1.60332   1.53336
 1574  N   1.53964   1.17503   1.27075   1.51334
 1575  H   0.65617
 1576  C   1.07448   0.85610   1.08669   1.03947
 1577  H   0.82262
 1578  C   1.06148   1.16454   1.09884   0.98381
 1579  H   0.84160
 1580  H   0.83840
 1581  C   1.04759   1.08143   0.95972   0.94883
 1582  H   0.86928
 1583  C   1.05592   1.17138   1.16342   1.07730
 1584  H   0.85398
 1585  H   0.86062
 1586  H   0.84658
 1587  C   1.05676   1.15714   1.09266   1.15831
 1588  H   0.85176
 1589  H   0.85994
 1590  H   0.84632
 1591  C   1.08260   0.71505   0.76177   0.70259
 1592  O   1.88398   1.46789   1.86998   1.62376
 1593  O   1.88778   1.54604   1.59287   1.80198

 **********************
 *                    *
 * JOB ENDED NORMALLY *
 *                    *
 **********************



 TOTAL JOB TIME:            39.75 SECONDS

 == MOPAC DONE ==
