 *******************************************************************************
 **                                                                           **
 **                              MOPAC v23.2.2                                **
 **                                                                           **
 *******************************************************************************
 **          Digital Object Identifier (DOI): 10.5281/zenodo.6511958          **
 **    Visit the DOI location for information on how to cite this program.    **
 *******************************************************************************

                              PM7 CALCULATION RESULTS

 *******************************************************************************
 *  CALCULATION DONE: (MAX THREADS = 12)             Tue Jan 27 16:03:14 2026  *
 *  PM7        - The PM7 Hamiltonian to be used
 *  MOZYME     - USE LOCALIZED M.O.s IN SOLVING THE SCF EQUATIONS
 *
 *
 *
 *                 CHARGE ON SYSTEM = +2
 *
 *
 *
 *  EPS=78.4   - USE ANDREAS KLAMT'S COSMO IMPLICIT SOLVATION MODEL
 *  1SCF       - DO 1 SCF AND THEN STOP 
 *  T=         - A TIME OF 172800.0 SECONDS REQUESTED
 *  DUMP=N     - RESTART FILE WRITTEN EVERY 7200.0 SECONDS REQUESTED
 *******************************************************************************
PM7 1SCF MOZYME CHARGE=2 EPS=78.4


   ATOM   CHEMICAL          X               Y               Z
  NUMBER   SYMBOL      (ANGSTROMS)     (ANGSTROMS)     (ANGSTROMS)

     1       H         71.69100000  *  165.23700000  * -45.36000000  *
     2       C         70.72700000  *  165.64400000  * -45.02500000  *
     3       O         70.67100000  *  166.69300000  * -44.40000000  *
     4       N         69.64800000  *  164.94600000  * -45.35400000  *
     5       H         69.74300000  *  164.08600000  * -45.86500000  *
     6       C         68.31800000  *  165.37700000  * -44.95100000  *
     7       H         68.30400000  *  166.44500000  * -44.75000000  *
     8       C         67.27900000  *  165.08100000  * -46.05800000  *
     9       H         67.27200000  *  164.02200000  * -46.29800000  *
    10       C         65.89200000  *  165.46600000  * -45.59200000  *
    11       H         65.46400000  *  166.22900000  * -46.24500000  *
    12       H         65.23700000  *  164.60600000  * -45.62700000  *
    13       H         65.87600000  *  165.89500000  * -44.58400000  *
    14       C         67.63700000  *  165.85600000  * -47.31700000  *
    15       H         68.59400000  *  165.52900000  * -47.70800000  *
    16       H         66.87900000  *  165.66900000  * -48.07700000  *
    17       H         67.68800000  *  166.92100000  * -47.10100000  *
    18       C         67.91500000  *  164.66400000  * -43.65700000  *
    19       O         67.55300000  *  165.30600000  * -42.67600000  *
    20       N         67.98400000  *  163.33800000  * -43.65800000  *
    21       H         68.28400000  *  162.85200000  * -44.48600000  *
    22       C         67.62300000  *  162.54400000  * -42.48700000  *
    23       H         67.90600000  *  163.07600000  * -41.58100000  *
    24       C         66.12800000  *  162.23500000  * -42.45900000  *
    25       H         65.92600000  *  161.47400000  * -43.20900000  *
    26       H         65.88500000  *  161.80700000  * -41.48800000  *
    27       C         65.21300000  *  163.39800000  * -42.74000000  *
    28       H         65.33100000  *  164.15700000  * -41.96400000  *
    29       H         65.45900000  *  163.81400000  * -43.69700000  *
    30       C         63.76600000  *  162.97200000  * -42.82400000  *
    31       O         63.44700000  *  162.11400000  * -43.67900000  *
    32       O         62.94800000  *  163.49400000  * -42.03400000  *
    33       C         68.34700000  *  161.22200000  * -42.57700000  *
    34       O         68.73000000  *  160.78800000  * -43.66100000  *
    35       N         68.52400000  *  160.57500000  * -41.43500000  *
    36       H         68.03000000  *  160.89100000  * -40.60600000  *
    37       C         69.17300000  *  159.28200000  * -41.42100000  *
    38       H         69.95100000  *  159.22100000  * -42.17800000  *
    39       C         69.75600000  *  159.01000000  * -40.03200000  *
    40       H         70.21900000  *  159.94300000  * -39.71800000  *
    41       H         68.96300000  *  158.79100000  * -39.31600000  *
    42       C         70.79800000  *  157.89600000  * -39.98300000  *
    43       H         70.31100000  *  156.94100000  * -40.17400000  *
    44       H         71.53800000  *  158.07300000  * -40.76900000  *
    45       C         71.50100000  *  157.83200000  * -38.61800000  *
    46       H         70.74900000  *  157.59000000  * -37.86000000  *
    47       H         72.23100000  *  157.01800000  * -38.63800000  *
    48       C         72.18600000  *  159.16200000  * -38.26900000  *
    49       H         72.83200000  *  159.42500000  * -39.10900000  *
    50       H         71.41200000  *  159.93100000  * -38.15600000  *
    51       N         73.00000000  *  159.10500000  * -37.02500000  *
    52       H         73.70000000  *  158.37000000  * -37.07400000  *
    53       H         73.43800000  *  159.98800000  * -36.79300000  *
    54       H         72.39100000  *  158.85400000  * -36.25100000  *
    55       C         68.06200000  *  158.28700000  * -41.74800000  *
    56       O         67.16300000  *  158.08100000  * -40.94600000  *
    57       N         68.06600000  *  157.74600000  * -42.96600000  *
    58       H         68.87500000  *  157.92300000  * -43.54100000  *
    59       C         67.11200000  *  156.72200000  * -43.42100000  *
    60       H         66.11100000  *  157.15500000  * -43.43000000  *
    61       C         67.46200000  *  156.27000000  * -44.85600000  *
    62       H         68.54200000  *  156.31100000  * -44.98100000  *
    63       C         67.03000000  *  154.83500000  * -45.17200000  *
    64       H         65.96400000  *  154.70300000  * -44.99000000  *
    65       H         67.26900000  *  154.61900000  * -46.20600000  *
    66       H         67.58200000  *  154.12800000  * -44.55700000  *
    67       C         66.82900000  *  157.25500000  * -45.85100000  *
    68       H         65.74300000  *  157.16300000  * -45.82700000  *
    69       H         67.07900000  *  158.25400000  * -45.51100000  *
    70       C         67.31700000  *  157.09600000  * -47.29900000  *
    71       H         66.93400000  *  156.17800000  * -47.73800000  *
    72       H         66.96200000  *  157.93300000  * -47.89600000  *
    73       H         68.40300000  *  157.07600000  * -47.33100000  *
    74       C         67.06700000  *  155.55300000  * -42.43800000  *
    75       O         65.98700000  *  155.12100000  * -42.03200000  *
    76       N         68.24100000  *  155.04800000  * -42.05900000  *
    77       H         69.10000000  *  155.44400000  * -42.42600000  *
    78       C         68.33700000  *  153.88400000  * -41.19800000  *
    79       H         68.05400000  *  154.17000000  * -40.18400000  *
    80       H         67.63800000  *  153.12300000  * -41.54900000  *
    81       C         69.72700000  *  153.26900000  * -41.14800000  *
    82       O         70.73900000  *  153.86300000  * -41.53000000  *
    83       N         69.74800000  *  152.06900000  * -40.58900000  *
    84       H         68.85800000  *  151.63900000  * -40.37700000  *
    85       C         70.92300000  *  151.44200000  * -40.00600000  *
    86       H         71.79900000  *  152.08000000  * -40.13700000  *
    87       C         70.66600000  *  151.28400000  * -38.49800000  *
    88       H         69.83700000  *  150.59500000  * -38.33400000  *
    89       H         71.56600000  *  150.87300000  * -38.06100000  *
    90       C         70.35300000  *  152.62200000  * -37.80100000  *
    91       H         71.14300000  *  153.33900000  * -38.03600000  *
    92       H         69.41700000  *  153.03000000  * -38.19000000  *
    93       C         70.21600000  *  152.47100000  * -36.27900000  *
    94       O         69.26700000  *  151.79900000  * -35.81400000  *
    95       O         71.01600000  *  153.08600000  * -35.53700000  *
    96       C         71.17800000  *  150.11600000  * -40.73400000  *
    97       O         70.54600000  *  149.09500000  * -40.45000000  *
    98       N         72.01800000  *  150.16700000  * -41.77100000  *
    99       H         72.58000000  *  151.00100000  * -41.90400000  *
   100       C         72.12400000  *  149.11300000  * -42.78200000  *
   101       H         71.12700000  *  148.73400000  * -43.00800000  *
   102       H         72.52500000  *  149.55400000  * -43.69400000  *
   103       C         73.00800000  *  147.92500000  * -42.39300000  *
   104       O         73.54900000  *  147.83700000  * -41.29300000  *
   105       N         73.20900000  *  147.02300000  * -43.35500000  *
   106       H         72.72800000  *  147.14700000  * -44.23700000  *
   107       C         74.07300000  *  145.82700000  * -43.24800000  *
   108       H         73.79600000  *  145.26600000  * -42.35500000  *
   109       C         73.86100000  *  144.91500000  * -44.46900000  *
   110       H         74.62400000  *  144.13500000  * -44.48900000  *
   111       C         72.49000000  *  144.24900000  * -44.44100000  *
   112       H         71.69800000  *  144.99500000  * -44.50700000  *
   113       H         72.41200000  *  143.56100000  * -45.28300000  *
   114       H         72.38900000  *  143.67700000  * -43.51900000  *
   115       O         73.95200000  *  145.69000000  * -45.63900000  *
   116       H         73.39300000  *  145.28000000  * -46.33600000  *
   117       C         75.57000000  *  146.13600000  * -43.13800000  *
   118       O         76.30400000  *  145.30500000  * -42.60700000  *
   119       N         76.01300000  *  147.31600000  * -43.59600000  *
   120       H         75.33600000  *  147.88700000  * -44.07400000  *
   121       C         77.43000000  *  147.71200000  * -43.69100000  *
   122       H         78.03400000  *  147.06300000  * -43.05600000  *
   123       C         77.90500000  *  147.53800000  * -45.14400000  *
   124       H         77.31600000  *  148.19300000  * -45.78500000  *
   125       H         78.94600000  *  147.85000000  * -45.22100000  *
   126       C         77.83700000  *  146.12800000  * -45.67400000  *
   127       C         78.72500000  *  145.16200000  * -45.17000000  *
   128       H         79.45600000  *  145.43400000  * -44.41900000  *
   129       C         78.64900000  *  143.83900000  * -45.62900000  *
   130       H         79.32700000  *  143.10100000  * -45.22900000  *
   131       C         77.68400000  *  143.48300000  * -46.59500000  *
   132       O         77.57900000  *  142.19600000  * -47.00100000  *
   133       H         77.95700000  *  141.61300000  * -46.31600000  *
   134       C         76.80900000  *  144.45700000  * -47.11500000  *
   135       H         76.06000000  *  144.18200000  * -47.83900000  *
   136       C         76.89400000  *  145.78300000  * -46.65900000  *
   137       H         76.21000000  *  146.52700000  * -47.04400000  *
   138       C         77.74200000  *  149.15600000  * -43.25900000  *
   139       O         78.89400000  *  149.57100000  * -43.36500000  *
   140       N         76.76600000  *  149.94600000  * -42.80100000  *
   141       H         75.84200000  *  149.56900000  * -42.65100000  *
   142       C         76.97700000  *  151.36300000  * -42.48200000  *
   143       H         77.52200000  *  151.44700000  * -41.54400000  *
   144       H         77.59200000  *  151.80800000  * -43.25500000  *
   145       C         75.67800000  *  152.16000000  * -42.36000000  *
   146       O         74.60700000  *  151.57000000  * -42.18700000  *
   147       N         75.75500000  *  153.49500000  * -42.44900000  *
   148       H         76.58800000  *  153.89400000  * -42.85900000  *
   149       C         74.59200000  *  154.32600000  * -42.21200000  *
   150       H         73.82600000  *  153.78000000  * -41.65800000  *
   151       C         74.95900000  *  155.54800000  * -41.37000000  *
   152       H         75.70700000  *  156.13900000  * -41.89300000  *
   153       C         73.73100000  *  156.40900000  * -41.13300000  *
   154       H         72.94300000  *  155.80300000  * -40.68200000  *
   155       H         73.98600000  *  157.21200000  * -40.45000000  *
   156       H         73.36800000  *  156.84900000  * -42.06500000  *
   157       C         75.54500000  *  155.09600000  * -40.05300000  *
   158       H         76.46000000  *  154.52800000  * -40.19800000  *
   159       H         75.77700000  *  155.95300000  * -39.42300000  *
   160       H         74.80500000  *  154.48400000  * -39.53200000  *
   161       C         74.01900000  *  154.79200000  * -43.53700000  *
   162       O         74.76100000  *  155.18400000  * -44.43700000  *
   163       N         72.70000000  *  154.65600000  * -43.67600000  *
   164       H         72.15700000  *  154.33200000  * -42.88000000  *
   165       C         71.95400000  *  155.12600000  * -44.84300000  *
   166       H         72.64600000  *  155.22100000  * -45.67600000  *
   167       C         70.84300000  *  154.15100000  * -45.27300000  *
   168       H         69.98300000  *  154.25800000  * -44.61300000  *
   169       C         70.41700000  *  154.49000000  * -46.70800000  *
   170       H         71.26400000  *  154.39600000  * -47.38800000  *
   171       H         69.62900000  *  153.81700000  * -47.03800000  *
   172       H         70.04100000  *  155.51000000  * -46.76300000  *
   173       C         71.30300000  *  152.69100000  * -45.21400000  *
   174       H         72.28200000  *  152.60300000  * -45.67300000  *
   175       H         71.36200000  *  152.36900000  * -44.17300000  *
   176       H         70.59000000  *  152.04700000  * -45.72900000  *
   177       C         71.36800000  *  156.49300000  * -44.53000000  *
   178       O         70.64600000  *  156.63700000  * -43.54000000  *
   179       N         71.62500000  *  157.49000000  * -45.37400000  *
   180       H         72.23900000  *  157.32200000  * -46.16900000  *
   181       C         71.01800000  *  158.79600000  * -45.21900000  *
   182       H         70.37900000  *  158.84300000  * -44.33800000  *
   183       C         72.10000000  *  159.86100000  * -45.06900000  *
   184       H         72.79900000  *  159.78100000  * -45.90500000  *
   185       H         71.63400000  *  160.84400000  * -45.14300000  *
   186       C         72.87100000  *  159.84300000  * -43.76800000  *
   187       C         72.34700000  *  160.43100000  * -42.61900000  *
   188       H         71.37700000  *  160.90600000  * -42.66800000  *
   189       C         73.06400000  *  160.45200000  * -41.42500000  *
   190       H         72.63300000  *  160.94600000  * -40.56800000  *
   191       C         74.33000000  *  159.87400000  * -41.37100000  *
   192       O         75.04700000  *  159.90100000  * -40.18700000  *
   193       H         74.69700000  *  160.54100000  * -39.56800000  *
   194       C         74.87500000  *  159.27800000  * -42.50300000  *
   195       H         75.78500000  *  158.71900000  * -42.41900000  *
   196       C         74.14000000  *  159.26700000  * -43.69600000  *
   197       H         74.51800000  *  158.73300000  * -44.56500000  *
   198       C         70.16700000  *  159.17400000  * -46.42900000  *
   199       O         70.41800000  *  158.72400000  * -47.55600000  *
   200       N         69.02600000  *  159.82900000  * -46.21100000  *
   201       H         68.83800000  *  160.13300000  * -45.26300000  *
   202       C         68.29600000  *  160.51300000  * -47.27900000  *
   203       H         68.28200000  *  159.91100000  * -48.19000000  *
   204       C         66.85400000  *  160.85400000  * -46.84800000  *
   205       H         66.32600000  *  159.94000000  * -46.59300000  *
   206       H         66.87700000  *  161.49000000  * -45.96100000  *
   207       C         66.05200000  *  161.55300000  * -47.95800000  *
   208       H         66.53400000  *  162.49300000  * -48.22800000  *
   209       H         66.02400000  *  160.90700000  * -48.83700000  *
   210       C         64.61800000  *  161.84000000  * -47.48600000  *
   211       H         64.15500000  *  160.91200000  * -47.14600000  *
   212       H         64.65300000  *  162.53700000  * -46.64800000  *
   213       C         63.77900000  *  162.43700000  * -48.62400000  *
   214       H         64.30600000  *  163.30600000  * -49.02900000  *
   215       H         63.69700000  *  161.68900000  * -49.42100000  *
   216       N         62.42400000  *  162.84000000  * -48.16100000  *
   217       H         62.47400000  *  163.55300000  * -47.44800000  *
   218       H         61.87500000  *  163.22000000  * -48.92200000  *
   219       H         61.91300000  *  162.05700000  * -47.77700000  *
   220       C         69.11200000  *  161.76200000  * -47.50700000  *
   221       O         69.35400000  *  162.49100000  * -46.54800000  *
   222       N         69.55500000  *  162.00600000  * -48.72500000  *
   223       H         69.34400000  *  161.34200000  * -49.46700000  *
   224       C         70.34900000  *  163.18200000  * -49.01700000  *
   225       H         70.22500000  *  163.93500000  * -48.24000000  *
   226       C         71.81400000  *  162.79200000  * -49.07000000  *
   227       H         71.97800000  *  162.06700000  * -49.86400000  *
   228       H         72.42900000  *  163.67700000  * -49.23900000  *
   229       H         72.10500000  *  162.33200000  * -48.12600000  *
   230       C         69.94400000  *  163.83800000  * -50.32200000  *
   231       O         69.22100000  *  163.25100000  * -51.12800000  *
   232       N         70.40700000  *  165.06400000  * -50.52400000  *
   233       H         70.93200000  *  165.53000000  * -49.79600000  *
   234       C         70.10800000  *  165.77900000  * -51.74600000  *
   235       H         69.54100000  *  165.15900000  * -52.44400000  *
   236       H         69.52200000  *  166.69100000  * -51.53000000  *
   237       H         71.05900000  *  166.04700000  * -52.23900000  *
   238       H         68.08600000  *  164.80700000  * -56.55000000  *
   239       C         68.21200000  *  164.39600000  * -55.53600000  *
   240       O         69.28600000  *  164.50800000  * -54.94200000  *
   241       N         67.13500000  *  163.82300000  * -55.01100000  *
   242       H         66.34000000  *  163.66800000  * -55.61500000  *
   243       C         67.13600000  *  163.21200000  * -53.68800000  *
   244       H         67.86300000  *  163.70700000  * -53.05000000  *
   245       C         65.75500000  *  163.32300000  * -53.02900000  *
   246       H         64.97700000  *  163.06900000  * -53.75000000  *
   247       C         65.64800000  *  162.36600000  * -51.85200000  *
   248       H         66.47200000  *  162.51800000  * -51.15200000  *
   249       H         64.69700000  *  162.53800000  * -51.34700000  *
   250       H         65.65200000  *  161.33900000  * -52.20000000  *
   251       C         65.54000000  *  164.75000000  * -52.56600000  *
   252       H         65.62600000  *  165.42400000  * -53.41600000  *
   253       H         64.53500000  *  164.85100000  * -52.15900000  *
   254       H         66.28400000  *  165.00300000  * -51.81000000  *
   255       C         67.52600000  *  161.76000000  * -53.84700000  *
   256       O         66.97900000  *  161.02800000  * -54.68200000  *
   257       N         68.49600000  *  161.34900000  * -53.04800000  *
   258       H         68.91100000  *  161.99700000  * -52.39100000  *
   259       C         69.01100000  *  159.99200000  * -53.10200000  *
   260       H         68.34600000  *  159.34100000  * -53.67900000  *
   261       C         70.37400000  *  159.97400000  * -53.81600000  *
   262       H         70.77500000  *  158.96500000  * -53.87500000  *
   263       C         70.21400000  *  160.50700000  * -55.21300000  *
   264       H         69.95700000  *  161.56600000  * -55.19000000  *
   265       H         71.15100000  *  160.39100000  * -55.75600000  *
   266       H         69.44200000  *  159.95000000  * -55.73600000  *
   267       C         71.37900000  *  160.85000000  * -53.05700000  *
   268       H         71.56500000  *  160.44500000  * -52.06400000  *
   269       H         72.31500000  *  160.84900000  * -53.61300000  *
   270       H         71.03600000  *  161.88400000  * -52.98400000  *
   271       C         69.19200000  *  159.37200000  * -51.72900000  *
   272       O         69.02000000  *  160.03600000  * -50.68600000  *
   273       N         69.38800000  *  158.06000000  * -51.70800000  *
   274       H         69.46500000  *  157.56800000  * -52.59400000  *
   275       C         69.76100000  *  157.32100000  * -50.51800000  *
   276       H         69.47900000  *  157.88000000  * -49.62700000  *
   277       C         69.00000000  *  156.00400000  * -50.49400000  *
   278       H         69.21800000  *  155.44100000  * -51.40000000  *
   279       H         69.29400000  *  155.42000000  * -49.62100000  *
   280       H         67.93200000  *  156.21300000  * -50.44300000  *
   281       C         71.27900000  *  157.13900000  * -50.53900000  *
   282       O         71.81500000  *  156.45700000  * -51.41800000  *
   283       N         71.97000000  *  157.79100000  * -49.60300000  *
   284       H         71.44500000  *  158.28300000  * -48.88900000  *
   285       C         73.41300000  *  157.73400000  * -49.53500000  *
   286       H         73.80300000  *  157.43200000  * -50.50200000  *
   287       C         73.96100000  *  159.11400000  * -49.18200000  *
   288       H         73.49200000  *  159.84000000  * -49.85100000  *
   289       H         73.62800000  *  159.35800000  * -48.16900000  *
   290       C         75.47300000  *  159.31600000  * -49.26600000  *
   291       H         75.96900000  *  158.63700000  * -48.57100000  *
   292       C         75.94900000  *  159.02000000  * -50.68400000  *
   293       H         75.44100000  *  159.71800000  * -51.34800000  *
   294       H         77.02400000  *  159.18800000  * -50.76300000  *
   295       H         75.74700000  *  157.98700000  * -50.96800000  *
   296       C         75.80400000  *  160.74000000  * -48.87900000  *
   297       H         75.43700000  *  160.94600000  * -47.87600000  *
   298       H         76.88200000  *  160.87900000  * -48.92200000  *
   299       H         75.32000000  *  161.42900000  * -49.57600000  *
   300       C         73.82100000  *  156.71600000  * -48.48500000  *
   301       O         73.39600000  *  156.78100000  * -47.33400000  *
   302       N         74.63700000  *  155.74500000  * -48.88800000  *
   303       H         74.87300000  *  155.72400000  * -49.87800000  *
   304       C         75.13400000  *  154.63100000  * -48.06600000  *
   305       H         74.61200000  *  154.60000000  * -47.10800000  *
   306       C         74.87400000  *  153.32200000  * -48.85100000  *
   307       H         74.44800000  *  153.57000000  * -49.82400000  *
   308       H         75.81200000  *  152.80000000  * -49.04200000  *
   309       C         73.89900000  *  152.33600000  * -48.20500000  *
   310       H         73.03800000  *  152.87600000  * -47.81300000  *
   311       H         73.54500000  *  151.68000000  * -49.00000000  *
   312       C         74.56000000  *  151.48900000  * -47.10400000  *
   313       H         75.53000000  *  151.12500000  * -47.44900000  *
   314       H         74.73600000  *  152.12000000  * -46.22900000  *
   315       C         73.69500000  *  150.28300000  * -46.69600000  *
   316       H         74.17000000  *  149.80300000  * -45.83400000  *
   317       H         72.71200000  *  150.64300000  * -46.37200000  *
   318       N         73.54000000  *  149.29800000  * -47.80600000  *
   319       H         74.43500000  *  148.95400000  * -48.13300000  *
   320       H         72.99100000  *  148.47600000  * -47.52100000  *
   321       H         73.04800000  *  149.70400000  * -48.59200000  *
   322       C         76.62400000  *  154.85000000  * -47.79900000  *
   323       O         77.41700000  *  154.68900000  * -48.71700000  *
   324       N         77.01700000  *  155.22600000  * -46.58100000  *
   325       H         76.29800000  *  155.26800000  * -45.86500000  *
   326       C         78.42200000  *  155.28900000  * -46.15900000  *
   327       H         79.06600000  *  155.59300000  * -46.98900000  *
   328       C         78.56700000  *  156.26000000  * -44.97900000  *
   329       H         78.02700000  *  155.87500000  * -44.10900000  *
   330       H         79.62500000  *  156.33900000  * -44.73000000  *
   331       C         78.01500000  *  157.64300000  * -45.34000000  *
   332       H         78.45100000  *  157.95800000  * -46.27300000  *
   333       H         76.93600000  *  157.57500000  * -45.50000000  *
   334       C         78.25100000  *  158.72500000  * -44.27900000  *
   335       H         77.97800000  *  159.68000000  * -44.73200000  *
   336       H         77.56000000  *  158.53300000  * -43.46900000  *
   337       C         79.67700000  *  158.85000000  * -43.70900000  *
   338       H         80.38400000  *  158.36300000  * -44.39700000  *
   339       H         79.95000000  *  159.91100000  * -43.68600000  *
   340       N         79.78800000  *  158.26900000  * -42.33500000  *
   341       H         79.63700000  *  157.26100000  * -42.37000000  *
   342       H         80.69600000  *  158.42600000  * -41.93200000  *
   343       H         79.10400000  *  158.64600000  * -41.70100000  *
   344       C         78.82300000  *  153.89100000  * -45.72900000  *
   345       O         78.09100000  *  153.31500000  * -44.93700000  *
   346       N         79.90700000  *  153.32000000  * -46.24700000  *
   347       H         80.40500000  *  153.76400000  * -47.01000000  *
   348       C         80.34300000  *  152.02200000  * -45.76800000  *
   349       H         79.49500000  *  151.49800000  * -45.35900000  *
   350       C         80.94400000  *  151.18600000  * -46.89500000  *
   351       H         81.78600000  *  151.78200000  * -47.16900000  *
   352       C         81.42400000  *  149.85200000  * -46.34500000  *
   353       H         80.65600000  *  149.35200000  * -45.75200000  *
   354       H         81.67900000  *  149.19900000  * -47.17900000  *
   355       H         82.34500000  *  149.95700000  * -45.76100000  *
   356       C         79.89700000  *  150.97600000  * -47.99700000  *
   357       H         79.60200000  *  151.87000000  * -48.50000000  *
   358       H         80.28300000  *  150.30500000  * -48.75000000  *
   359       C         78.59100000  *  150.36100000  * -47.52600000  *
   360       H         78.17700000  *  150.90100000  * -46.69000000  *
   361       H         77.89400000  *  150.33700000  * -48.36300000  *
   362       H         78.77100000  *  149.33300000  * -47.20900000  *
   363       C         81.33300000  *  152.07100000  * -44.61400000  *
   364       O         82.16700000  *  152.98000000  * -44.51900000  *
   365       N         81.21100000  *  151.07100000  * -43.74300000  *
   366       H         80.50300000  *  150.36100000  * -43.92800000  *
   367       C         82.04400000  *  150.90200000  * -42.55200000  *
   368       H         81.47500000  *  151.18100000  * -41.66300000  *
   369       H         82.35800000  *  149.86100000  * -42.45900000  *
   370       H         82.94700000  *  151.51400000  * -42.62000000  *
   371       H         81.25700000  *  144.04600000  * -57.89900000  *
   372       C         80.50000000  *  144.84100000  * -57.88800000  *
   373       O         79.71500000  *  144.99000000  * -58.82400000  *
   374       N         80.49900000  *  145.60300000  * -56.79700000  *
   375       H         81.28000000  *  145.52500000  * -56.16600000  *
   376       C         79.57000000  *  146.70600000  * -56.61200000  *
   377       H         78.57500000  *  146.34400000  * -56.42300000  *
   378       C         80.00500000  *  147.61000000  * -55.44200000  *
   379       H         80.89800000  *  148.18000000  * -55.68500000  *
   380       C         78.90600000  *  148.60800000  * -55.12500000  *
   381       H         77.92000000  *  148.14100000  * -55.17600000  *
   382       H         79.04500000  *  148.98700000  * -54.11600000  *
   383       H         78.93800000  *  149.43600000  * -55.83300000  *
   384       C         80.32100000  *  146.76200000  * -54.20900000  *
   385       H         81.19200000  *  146.13400000  * -54.40600000  *
   386       H         80.59400000  *  147.42200000  * -53.38900000  *
   387       C         79.18400000  *  145.87900000  * -53.76500000  *
   388       H         78.77800000  *  145.31100000  * -54.59400000  *
   389       H         79.50900000  *  145.12200000  * -53.06500000  *
   390       H         78.38800000  *  146.48300000  * -53.33500000  *
   391       C         79.54300000  *  147.54500000  * -57.87900000  *
   392       O         78.48200000  *  147.77900000  * -58.45100000  *
   393       N         80.72300000  *  147.98900000  * -58.30900000  *
   394       H         81.55800000  *  147.70100000  * -57.81200000  *
   395       C         80.85900000  *  148.80400000  * -59.51100000  *
   396       H         80.33900000  *  149.74600000  * -59.38600000  *
   397       H         81.92800000  *  148.98500000  * -59.72900000  *
   398       H         80.37800000  *  148.32200000  * -60.38100000  *
   399       H         78.96400000  *  146.08700000  * -61.65600000  *
   400       C         77.87300000  *  146.08700000  * -61.51600000  *
   401       O         77.11500000  *  145.89500000  * -62.46400000  *
   402       N         77.44600000  *  146.31800000  * -60.28000000  *
   403       H         78.13400000  *  146.42500000  * -59.54900000  *
   404       C         76.02800000  *  146.35200000  * -59.94500000  *
   405       H         75.53300000  *  145.47600000  * -60.35900000  *
   406       C         75.84100000  *  146.37400000  * -58.43100000  *
   407       H         76.20500000  *  147.30400000  * -58.01800000  *
   408       H         74.76300000  *  146.35700000  * -58.24200000  *
   409       C         76.47200000  *  145.22200000  * -57.65900000  *
   410       H         77.55000000  *  145.23900000  * -57.74900000  *
   411       C         76.08000000  *  145.34100000  * -56.19200000  *
   412       H         74.99900000  *  145.23000000  * -56.07700000  *
   413       H         76.57300000  *  144.55300000  * -55.62900000  *
   414       H         76.38500000  *  146.30900000  * -55.80100000  *
   415       C         75.99600000  *  143.89000000  * -58.23600000  *
   416       H         76.41500000  *  143.73000000  * -59.22900000  *
   417       H         76.32800000  *  143.07800000  * -57.59100000  *
   418       H         74.90500000  *  143.87400000  * -58.30500000  *
   419       C         75.32200000  *  147.55900000  * -60.54800000  *
   420       O         74.09500000  *  147.56800000  * -60.66200000  *
   421       N         76.08400000  *  148.63100000  * -60.82900000  *
   422       H         77.08200000  *  148.53500000  * -60.67700000  *
   423       C         75.60100000  *  149.83300000  * -61.53400000  *
   424       H         74.83700000  *  150.33500000  * -60.94100000  *
   425       H         76.43800000  *  150.53300000  * -61.75900000  *
   426       H         75.13800000  *  149.54900000  * -62.49200000  *
   427       H         62.79000000  *  145.77200000  * -59.27600000  *
   428       C         63.71000000  *  145.72000000  * -58.67500000  *
   429       O         63.77900000  *  145.02200000  * -57.66400000  *
   430       N         64.72400000  *  146.45200000  * -59.11400000  *
   431       H         64.63800000  *  147.05100000  * -59.92700000  *
   432       C         65.97100000  *  146.53500000  * -58.38100000  *
   433       H         65.88400000  *  146.09200000  * -57.38600000  *
   434       C         67.11600000  *  145.87700000  * -59.11400000  *
   435       H         67.33600000  *  146.42600000  * -60.03000000  *
   436       C         68.35100000  *  145.87800000  * -58.21400000  *
   437       H         68.14700000  *  145.31400000  * -57.31800000  *
   438       H         69.21000000  *  145.44500000  * -58.72400000  *
   439       H         68.64100000  *  146.89000000  * -57.94500000  *
   440       C         66.72800000  *  144.44400000  * -59.47800000  *
   441       H         66.54900000  *  143.87300000  * -58.56400000  *
   442       H         65.81500000  *  144.42400000  * -60.06800000  *
   443       C         67.77400000  *  143.72700000  * -60.29600000  *
   444       H         68.68300000  *  143.57700000  * -59.72200000  *
   445       H         67.37700000  *  142.75300000  * -60.59800000  *
   446       H         68.02300000  *  144.31300000  * -61.18000000  *
   447       C         66.29500000  *  148.01000000  * -58.22000000  *
   448       O         66.21200000  *  148.78000000  * -59.18400000  *
   449       N         66.55800000  *  148.43600000  * -56.98200000  *
   450       H         66.62700000  *  147.75200000  * -56.23400000  *
   451       C         66.89700000  *  149.83100000  * -56.67500000  *
   452       H         66.07900000  *  150.47400000  * -56.99600000  *
   453       C         67.09800000  *  150.02400000  * -55.16400000  *
   454       H         67.88300000  *  149.35300000  * -54.81400000  *
   455       C         67.48000000  *  151.46100000  * -54.79200000  *
   456       H         66.65400000  *  152.13700000  * -55.00700000  *
   457       H         67.70800000  *  151.50900000  * -53.72800000  *
   458       H         68.35700000  *  151.78400000  * -55.34800000  *
   459       C         65.80200000  *  149.70600000  * -54.41600000  *
   460       H         65.53000000  *  148.66100000  * -54.53300000  *
   461       H         65.95500000  *  149.89900000  * -53.36200000  *
   462       H         64.99300000  *  150.33000000  * -54.78900000  *
   463       C         68.15500000  *  150.21800000  * -57.44800000  *
   464       O         69.18700000  *  149.55200000  * -57.32300000  *
   465       N         68.08000000  *  151.28300000  * -58.25100000  *
   466       H         67.22500000  *  151.80400000  * -58.24500000  *
   467       C         69.18900000  *  151.69800000  * -59.08000000  *
   468       H         69.52500000  *  150.81900000  * -59.63900000  *
   469       C         68.73700000  *  152.76800000  * -60.08300000  *
   470       H         67.83400000  *  152.41100000  * -60.57900000  *
   471       H         68.47700000  *  153.68100000  * -59.53700000  *
   472       C         69.79100000  *  153.06900000  * -61.13100000  *
   473       H         70.72100000  *  153.35000000  * -60.64200000  *
   474       H         69.97400000  *  152.16800000  * -61.71600000  *
   475       C         69.35100000  *  154.17900000  * -62.08100000  *
   476       H         68.50200000  *  153.81400000  * -62.66100000  *
   477       H         69.02300000  *  155.05600000  * -61.52200000  *
   478       C         70.49800000  *  154.55900000  * -63.02400000  *
   479       H         71.33900000  *  154.89000000  * -62.40800000  *
   480       H         70.81900000  *  153.66100000  * -63.56600000  *
   481       N         70.11800000  *  155.62600000  * -63.99700000  *
   482       H         69.74700000  *  156.41600000  * -63.48300000  *
   483       H         70.92600000  *  155.93300000  * -64.52500000  *
   484       H         69.41500000  *  155.27800000  * -64.63600000  *
   485       C         70.36000000  *  152.21400000  * -58.25300000  *
   486       O         70.19400000  *  153.07400000  * -57.38700000  *
   487       N         71.53700000  *  151.64500000  * -58.50700000  *
   488       H         71.59600000  *  150.90400000  * -59.18600000  *
   489       C         72.75000000  *  152.07400000  * -57.83600000  *
   490       H         72.53800000  *  152.52600000  * -56.87100000  *
   491       C         73.72700000  *  150.91100000  * -57.67000000  *
   492       H         73.31500000  *  150.22100000  * -56.93700000  *
   493       H         73.77900000  *  150.36900000  * -58.62000000  *
   494       C         75.16700000  *  151.27300000  * -57.28800000  *
   495       H         75.65500000  *  151.80300000  * -58.10000000  *
   496       C         75.18300000  *  152.16500000  * -56.05900000  *
   497       H         74.60800000  *  151.72100000  * -55.25200000  *
   498       H         76.21000000  *  152.29600000  * -55.73500000  *
   499       H         74.78900000  *  153.14000000  * -56.31200000  *
   500       C         75.93300000  *  149.99400000  * -57.01300000  *
   501       H         75.98300000  *  149.42100000  * -57.93300000  *
   502       H         76.94600000  *  150.24200000  * -56.71200000  *
   503       H         75.43500000  *  149.41000000  * -56.23200000  *
   504       C         73.31900000  *  153.11300000  * -58.79500000  *
   505       O         73.76900000  *  152.77900000  * -59.89700000  *
   506       N         73.26700000  *  154.36900000  * -58.37800000  *
   507       H         72.92600000  *  154.57000000  * -57.44900000  *
   508       C         73.73400000  *  155.46600000  * -59.19700000  *
   509       H         73.47500000  *  155.26500000  * -60.23600000  *
   510       C         73.02500000  *  156.74200000  * -58.76000000  *
   511       H         73.45000000  *  157.06300000  * -57.80900000  *
   512       H         73.23600000  *  157.53300000  * -59.48700000  *
   513       C         71.51300000  *  156.60300000  * -58.58700000  *
   514       H         71.27400000  *  155.80900000  * -57.88500000  *
   515       C         70.97400000  *  157.88000000  * -58.01900000  *
   516       H         71.37000000  *  158.74600000  * -58.56000000  *
   517       H         69.88800000  *  157.89100000  * -58.09300000  *
   518       H         71.22100000  *  157.96000000  * -56.96600000  *
   519       C         70.85100000  *  156.29000000  * -59.92300000  *
   520       H         71.28300000  *  155.39700000  * -60.34200000  *
   521       H         69.78900000  *  156.14400000  * -59.75100000  *
   522       H         71.00300000  *  157.12700000  * -60.60700000  *
   523       C         75.24500000  *  155.67800000  * -59.15800000  *
   524       O         75.83900000  *  156.04700000  * -60.17600000  *
   525       N         75.86200000  *  155.44600000  * -57.99600000  *
   526       H         75.29500000  *  155.17900000  * -57.20400000  *
   527       C         77.30800000  *  155.64700000  * -57.82900000  *
   528       H         77.80800000  *  155.40400000  * -58.76600000  *
   529       C         77.60000000  *  157.11700000  * -57.51900000  *
   530       H         76.91700000  *  157.54400000  * -56.80300000  *
   531       H         78.58200000  *  157.17000000  * -57.04800000  *
   532       C         77.65600000  *  157.97500000  * -58.75600000  *
   533       O         78.67800000  *  157.91700000  * -59.48300000  *
   534       O         76.67400000  *  158.70400000  * -59.00000000  *
   535       C         77.97900000  *  154.81700000  * -56.73400000  *
   536       O         77.37100000  *  154.52100000  * -55.70400000  *
   537       N         79.24700000  *  154.47700000  * -56.96600000  *
   538       H         79.69800000  *  154.82400000  * -57.79800000  *
   539       C         80.06100000  *  153.73800000  * -56.00300000  *
   540       H         79.55400000  *  153.69900000  * -55.05200000  *
   541       C         80.36600000  *  152.29800000  * -56.50400000  *
   542       H         79.42700000  *  151.75200000  * -56.56200000  *
   543       C         80.98100000  *  152.34300000  * -57.88400000  *
   544       H         82.06600000  *  152.43300000  * -57.82100000  *
   545       H         80.74600000  *  151.41400000  * -58.37900000  *
   546       H         80.59600000  *  153.14500000  * -58.51000000  *
   547       C         81.29900000  *  151.58800000  * -55.53900000  *
   548       H         80.81100000  *  151.54900000  * -54.57200000  *
   549       H         81.47300000  *  150.57200000  * -55.87800000  *
   550       H         82.25900000  *  152.09200000  * -55.44900000  *
   551       C         81.36500000  *  154.53600000  * -55.81000000  *
   552       O         82.27000000  *  154.48900000  * -56.64700000  *
   553       N         81.45200000  *  155.28200000  * -54.71000000  *
   554       H         80.67600000  *  155.30400000  * -54.06400000  *
   555       C         82.62100000  *  156.11100000  * -54.44300000  *
   556       H         83.20500000  *  156.21800000  * -55.35800000  *
   557       H         82.32200000  *  157.12800000  * -54.14500000  *
   558       H         83.29700000  *  155.73900000  * -53.65600000  *
   559       H         84.58000000  *  155.17100000  * -47.07300000  *
   560       C         84.22500000  *  154.98400000  * -48.09100000  *
   561       O         84.63900000  *  155.65900000  * -49.04200000  *
   562       N         83.35800000  *  153.99100000  * -48.22200000  *
   563       H         83.13600000  *  153.42800000  * -47.41700000  *
   564       C         82.77600000  *  153.65100000  * -49.50600000  *
   565       H         83.37000000  *  154.04700000  * -50.31700000  *
   566       C         82.71900000  *  152.14000000  * -49.66000000  *
   567       H         83.74000000  *  151.87500000  * -49.95700000  *
   568       H         82.64400000  *  151.54600000  * -48.78400000  *
   569       C         81.82600000  *  151.61900000  * -50.77900000  *
   570       H         80.79100000  *  151.88400000  * -50.58700000  *
   571       C         82.25800000  *  152.23100000  * -52.09200000  *
   572       H         83.31100000  *  152.49100000  * -52.08900000  *
   573       H         82.09300000  *  151.51300000  * -52.88400000  *
   574       H         81.65400000  *  153.10900000  * -52.31200000  *
   575       C         81.89900000  *  150.09400000  * -50.82200000  *
   576       H         81.91300000  *  149.66400000  * -49.82700000  *
   577       H         81.05200000  *  149.70600000  * -51.39100000  *
   578       H         82.82500000  *  149.80300000  * -51.32100000  *
   579       C         81.36700000  *  154.23200000  * -49.54800000  *
   580       O         80.51800000  *  153.85700000  * -48.74500000  *
   581       N         81.13100000  *  155.16100000  * -50.46700000  *
   582       H         81.84500000  *  155.34800000  * -51.16200000  *
   583       C         79.82200000  *  155.78100000  * -50.60800000  *
   584       H         79.27400000  *  155.67000000  * -49.68700000  *
   585       C         79.96700000  *  157.27800000  * -50.86800000  *
   586       H         80.42300000  *  157.50400000  * -51.79700000  *
   587       H         78.95400000  *  157.66400000  * -50.98900000  *
   588       C         80.57600000  *  158.04300000  * -49.72300000  *
   589       C         79.79300000  *  158.48000000  * -48.65600000  *
   590       H         78.73500000  *  158.25400000  * -48.66900000  *
   591       C         80.35600000  *  159.18600000  * -47.59400000  *
   592       H         79.75300000  *  159.56200000  * -46.79700000  *
   593       C         81.71600000  *  159.45200000  * -47.58700000  *
   594       O         82.27600000  *  160.12500000  * -46.52100000  *
   595       H         83.20600000  *  160.30800000  * -46.74500000  *
   596       C         82.51400000  *  159.02600000  * -48.63700000  *
   597       H         83.58200000  *  159.23300000  * -48.65000000  *
   598       C         81.94100000  *  158.32800000  * -49.69800000  *
   599       H         82.57400000  *  157.98100000  * -50.50200000  *
   600       C         79.04800000  *  155.15800000  * -51.76500000  *
   601       O         79.54400000  *  155.08000000  * -52.88800000  *
   602       N         77.86300000  *  154.62300000  * -51.49500000  *
   603       H         77.53600000  *  154.64600000  * -50.53500000  *
   604       C         76.98200000  *  154.05300000  * -52.51300000  *
   605       H         77.50700000  *  154.00100000  * -53.46000000  *
   606       C         76.55100000  *  152.62000000  * -52.15300000  *
   607       H         75.86700000  *  152.66300000  * -51.31500000  *
   608       H         76.00300000  *  152.21500000  * -53.00500000  *
   609       C         77.68900000  *  151.65100000  * -51.79200000  *
   610       H         78.20400000  *  152.00000000  * -50.89700000  *
   611       C         77.12000000  *  150.26100000  * -51.51000000  *
   612       H         76.62200000  *  149.86900000  * -52.39800000  *
   613       H         77.92600000  *  149.58400000  * -51.22500000  *
   614       H         76.40600000  *  150.31500000  * -50.68900000  *
   615       C         78.69300000  *  151.52700000  * -52.93100000  *
   616       H         79.21100000  *  152.47300000  * -53.06500000  *
   617       H         79.43100000  *  150.76700000  * -52.68300000  *
   618       H         78.18000000  *  151.25800000  * -53.85500000  *
   619       C         75.78800000  *  154.98600000  * -52.67200000  *
   620       O         75.10700000  *  155.26700000  * -51.68200000  *
   621       N         75.54700000  *  155.50800000  * -53.87800000  *
   622       H         76.14500000  *  155.25500000  * -54.66000000  *
   623       C         74.40900000  *  156.37500000  * -54.09400000  *
   624       H         73.97600000  *  156.70200000  * -53.15000000  *
   625       C         74.83400000  *  157.63700000  * -54.81800000  *
   626       H         75.25500000  *  157.34500000  * -55.76600000  *
   627       C         73.61400000  *  158.52200000  * -55.10900000  *
   628       H         73.11700000  *  158.76900000  * -54.17500000  *
   629       H         73.94100000  *  159.43100000  * -55.61500000  *
   630       H         72.91600000  *  158.00900000  * -55.76200000  *
   631       C         75.84000000  *  158.38200000  * -53.94900000  *
   632       H         75.28100000  *  158.78400000  * -53.13000000  *
   633       H         76.65600000  *  157.75800000  * -53.60500000  *
   634       H         76.26100000  *  159.20400000  * -54.52500000  *
   635       C         73.31400000  *  155.64400000  * -54.85300000  *
   636       O         73.49500000  *  155.22100000  * -55.99400000  *
   637       N         72.21200000  *  155.38100000  * -54.15700000  *
   638       H         72.14500000  *  155.73500000  * -53.20700000  *
   639       C         71.03500000  *  154.70500000  * -54.69100000  *
   640       H         71.28300000  *  154.23800000  * -55.64000000  *
   641       C         70.58100000  *  153.61400000  * -53.71600000  *
   642       H         70.45100000  *  154.05600000  * -52.72800000  *
   643       H         69.60400000  *  153.25500000  * -54.03400000  *
   644       C         71.51000000  *  152.42100000  * -53.60000000  *
   645       C         71.36900000  *  151.33100000  * -54.48100000  *
   646       H         70.62800000  *  151.35800000  * -55.26600000  *
   647       C         72.18300000  *  150.19400000  * -54.33800000  *
   648       H         72.06400000  *  149.35400000  * -55.01000000  *
   649       C         73.14900000  *  150.14500000  * -53.31800000  *
   650       H         73.77600000  *  149.27000000  * -53.20800000  *
   651       C         73.29800000  *  151.23500000  * -52.44300000  *
   652       H         74.03400000  *  151.19100000  * -51.65400000  *
   653       C         72.48500000  *  152.37400000  * -52.58500000  *
   654       H         72.59900000  *  153.20800000  * -51.90500000  *
   655       C         69.90200000  *  155.70800000  * -54.93000000  *
   656       O         69.78900000  *  156.70800000  * -54.22000000  *
   657       N         69.03600000  *  155.44400000  * -55.91100000  *
   658       H         69.17800000  *  154.60700000  * -56.46700000  *
   659       C         67.75100000  *  156.15300000  * -56.00400000  *
   660       H         67.96800000  *  157.20400000  * -56.20200000  *
   661       C         66.91100000  *  155.63000000  * -57.18400000  *
   662       H         66.03900000  *  156.27600000  * -57.28200000  *
   663       H         67.49600000  *  155.70100000  * -58.10300000  *
   664       C         66.44500000  *  154.18000000  * -56.99600000  *
   665       H         67.32500000  *  153.53600000  * -56.96800000  *
   666       H         65.93400000  *  154.09300000  * -56.04200000  *
   667       C         65.47100000  *  153.68200000  * -58.06900000  *
   668       O         64.64000000  *  154.45800000  * -58.59300000  *
   669       O         65.49000000  *  152.46400000  * -58.35200000  *
   670       C         66.97700000  *  156.08100000  * -54.66700000  *
   671       O         67.01400000  *  155.06700000  * -53.96300000  *
   672       N         66.28100000  *  157.15700000  * -54.29900000  *
   673       H         66.25500000  *  157.96100000  * -54.91000000  *
   674       C         65.41200000  *  157.17300000  * -53.12100000  *
   675       H         65.86400000  *  156.56600000  * -52.33300000  *
   676       C         65.31100000  *  158.61000000  * -52.59700000  *
   677       H         66.31300000  *  158.95900000  * -52.34600000  *
   678       H         64.92600000  *  159.25100000  * -53.39200000  *
   679       C         64.43400000  *  158.76500000  * -51.37100000  *
   680       C         63.11400000  *  159.23900000  * -51.49300000  *
   681       H         62.71900000  *  159.50300000  * -52.46500000  *
   682       C         62.30200000  *  159.36500000  * -50.35300000  *
   683       H         61.28800000  *  159.72600000  * -50.45100000  *
   684       C         62.80500000  *  159.01600000  * -49.08700000  *
   685       H         62.17600000  *  159.10300000  * -48.21100000  *
   686       C         64.12700000  *  158.55700000  * -48.96200000  *
   687       H         64.51500000  *  158.29300000  * -47.98900000  *
   688       C         64.93900000  *  158.42600000  * -50.10300000  *
   689       H         65.95000000  *  158.05600000  * -50.00700000  *
   690       C         64.02600000  *  156.58700000  * -53.44000000  *
   691       O         63.41800000  *  156.94000000  * -54.45400000  *
   692       N         63.50400000  *  155.73900000  * -52.55000000  *
   693       H         64.07900000  *  155.47300000  * -51.75600000  *
   694       C         62.11400000  *  155.26100000  * -52.55700000  *
   695       H         61.54600000  *  155.77600000  * -53.33300000  *
   696       C         62.05300000  *  153.74900000  * -52.82100000  *
   697       H         62.76600000  *  153.24800000  * -52.16800000  *
   698       H         61.05400000  *  153.41000000  * -52.54300000  *
   699       C         62.30900000  *  153.36400000  * -54.28900000  *
   700       H         62.04200000  *  154.19500000  * -54.94200000  *
   701       C         63.77400000  *  152.99300000  * -54.51200000  *
   702       H         64.05100000  *  152.17200000  * -53.85500000  *
   703       H         63.93000000  *  152.70700000  * -55.55100000  *
   704       H         64.40900000  *  153.84800000  * -54.28700000  *
   705       C         61.45400000  *  152.15900000  * -54.68700000  *
   706       H         60.40000000  *  152.37700000  * -54.51100000  *
   707       H         61.58500000  *  151.95100000  * -55.74600000  *
   708       H         61.73900000  *  151.28300000  * -54.10600000  *
   709       C         61.45400000  *  155.58600000  * -51.21600000  *
   710       O         62.07900000  *  155.47100000  * -50.16800000  *
   711       N         60.20200000  *  156.02700000  * -51.23300000  *
   712       H         59.74000000  *  156.12500000  * -52.12800000  *
   713       C         59.59800000  *  156.72500000  * -50.09500000  *
   714       H         60.31700000  *  157.46900000  * -49.74700000  *
   715       C         58.36700000  *  157.49200000  * -50.58800000  *
   716       H         57.58700000  *  156.77800000  * -50.85300000  *
   717       H         58.01200000  *  158.11300000  * -49.76800000  *
   718       C         58.62300000  *  158.38500000  * -51.78200000  *
   719       N         58.76800000  *  157.95400000  * -53.10500000  *
   720       C         59.00400000  *  159.06200000  * -53.83000000  *
   721       H         59.16300000  *  159.08200000  * -54.90300000  *
   722       N         59.01300000  *  160.14600000  * -53.03700000  *
   723       H         59.16400000  *  161.10000000  * -53.35300000  *
   724       C         58.77600000  *  159.74000000  * -51.74200000  *
   725       H         58.72300000  *  160.36700000  * -50.86100000  *
   726       C         59.28100000  *  155.85500000  * -48.86100000  *
   727       O         59.08900000  *  156.41100000  * -47.77900000  *
   728       N         59.23400000  *  154.52100000  * -48.98600000  *
   729       H         59.40600000  *  154.11800000  * -49.89800000  *
   730       C         58.92500000  *  153.59500000  * -47.88300000  *
   731       H         59.37400000  *  153.99200000  * -46.97100000  *
   732       C         57.39300000  *  153.56000000  * -47.68700000  *
   733       H         57.05400000  *  154.57500000  * -47.47700000  *
   734       H         56.91100000  *  153.23200000  * -48.60900000  *
   735       C         56.93700000  *  152.65000000  * -46.53400000  *
   736       H         56.80500000  *  151.63800000  * -46.91100000  *
   737       H         57.70400000  *  152.63900000  * -45.76100000  *
   738       C         55.64400000  *  153.11900000  * -45.87800000  *
   739       O         55.64800000  *  153.76900000  * -44.84500000  *
   740       N         54.49300000  *  152.80900000  * -46.43400000  *
   741       H         53.66100000  *  153.13500000  * -45.96500000  *
   742       H         54.46200000  *  152.30300000  * -47.30100000  *
   743       C         59.52500000  *  152.18700000  * -48.10400000  *
   744       O         59.69500000  *  151.75200000  * -49.24300000  *
   745       N         59.83800000  *  151.46800000  * -47.01900000  *
   746       H         59.66100000  *  151.86900000  * -46.11200000  *
   747       C         60.23500000  *  150.04900000  * -47.04800000  *
   748       H         60.55600000  *  149.80600000  * -48.05700000  *
   749       C         61.44600000  *  149.79200000  * -46.13100000  *
   750       H         61.80600000  *  148.78000000  * -46.32700000  *
   751       H         62.24800000  *  150.47600000  * -46.40700000  *
   752       C         61.15500000  *  149.91800000  * -44.63000000  *
   753       O         60.29900000  *  149.16300000  * -44.12500000  *
   754       O         61.80900000  *  150.74900000  * -43.95900000  *
   755       C         59.06000000  *  149.11000000  * -46.71600000  *
   756       O         58.03400000  *  149.53400000  * -46.16500000  *
   757       N         59.19100000  *  147.81900000  * -47.04800000  *
   758       H         60.03800000  *  147.50900000  * -47.52500000  *
   759       C         58.10100000  *  146.88000000  * -46.84100000  *
   760       H         57.21800000  *  147.32500000  * -47.29300000  *
   761       C         58.41200000  *  145.57700000  * -47.59200000  *
   762       H         58.61300000  *  145.80400000  * -48.64400000  *
   763       H         59.28800000  *  145.12100000  * -47.15800000  *
   764       C         57.28700000  *  144.52700000  * -47.51900000  *
   765       H         57.05600000  *  144.28000000  * -46.48700000  *
   766       C         56.00700000  *  145.04400000  * -48.19600000  *
   767       H         56.23500000  *  145.37800000  * -49.20200000  *
   768       H         55.26800000  *  144.24500000  * -48.23100000  *
   769       H         55.59500000  *  145.87000000  * -47.62900000  *
   770       C         57.76800000  *  143.24900000  * -48.17500000  *
   771       H         58.61500000  *  142.85400000  * -47.62000000  *
   772       H         56.97300000  *  142.50400000  * -48.17100000  *
   773       H         58.06400000  *  143.44500000  * -49.20700000  *
   774       C         57.76400000  *  146.61300000  * -45.36900000  *
   775       O         56.60900000  *  146.37600000  * -45.03000000  *
   776       N         58.75700000  *  146.67700000  * -44.48800000  *
   777       H         59.64000000  *  147.08600000  * -44.79000000  *
   778       C         58.49100000  *  146.46700000  * -43.07300000  *
   779       H         57.97900000  *  145.55100000  * -42.87200000  *
   780       C         59.78200000  *  146.47800000  * -42.25400000  *
   781       H         60.44800000  *  145.70000000  * -42.62000000  *
   782       H         60.28600000  *  147.44000000  * -42.35600000  *
   783       C         59.49200000  *  146.22900000  * -40.76500000  *
   784       H         58.94200000  *  147.08300000  * -40.37400000  *
   785       H         58.87100000  *  145.33200000  * -40.67600000  *
   786       C         60.74500000  *  146.03800000  * -39.93500000  *
   787       H         61.36100000  *  145.25900000  * -40.37900000  *
   788       H         61.30800000  *  146.97100000  * -39.90700000  *
   789       C         60.37600000  *  145.60700000  * -38.51700000  *
   790       H         59.98500000  *  144.58900000  * -38.53700000  *
   791       H         61.27900000  *  145.61300000  * -37.90300000  *
   792       N         59.34600000  *  146.53100000  * -37.94700000  *
   793       H         58.44600000  *  146.48100000  * -38.44300000  *
   794       H         59.09000000  *  146.27800000  * -37.00400000  *
   795       H         59.61300000  *  147.50600000  * -37.97800000  *
   796       C         57.55800000  *  147.53800000  * -42.51200000  *
   797       O         56.61300000  *  147.23400000  * -41.78300000  *
   798       N         57.83800000  *  148.81000000  * -42.80900000  *
   799       H         58.67200000  *  148.99200000  * -43.37300000  *
   800       C         57.02200000  *  149.93800000  * -42.34600000  *
   801       H         56.92200000  *  149.87200000  * -41.26100000  *
   802       C         57.73400000  *  151.25500000  * -42.68800000  *
   803       H         58.76200000  *  151.20100000  * -42.32400000  *
   804       H         57.75700000  *  151.38700000  * -43.77000000  *
   805       C         57.04800000  *  152.46300000  * -42.03000000  *
   806       H         56.04400000  *  152.57600000  * -42.43700000  *
   807       H         56.97000000  *  152.28900000  * -40.95500000  *
   808       C         57.84600000  *  153.75300000  * -42.26700000  *
   809       H         58.82700000  *  153.65700000  * -41.79900000  *
   810       H         57.97600000  *  153.91100000  * -43.33800000  *
   811       C         57.09900000  *  154.94600000  * -41.65800000  *
   812       H         56.12600000  *  155.03700000  * -42.14900000  *
   813       H         56.92100000  *  154.74300000  * -40.59800000  *
   814       N         57.86500000  *  156.21000000  * -41.80700000  *
   815       H         58.02700000  *  156.43000000  * -42.77800000  *
   816       H         57.36500000  *  156.98600000  * -41.39700000  *
   817       H         58.76200000  *  156.15000000  * -41.34600000  *
   818       C         55.61100000  *  149.84500000  * -42.92700000  *
   819       O         54.63700000  *  150.09200000  * -42.22200000  *
   820       N         55.49500000  *  149.42600000  * -44.18900000  *
   821       H         56.35000000  *  149.26300000  * -44.71300000  *
   822       C         54.20500000  *  149.26000000  * -44.85200000  *
   823       H         53.62600000  *  150.17500000  * -44.72500000  *
   824       C         54.41000000  *  148.98800000  * -46.34000000  *
   825       H         54.98900000  *  149.80200000  * -46.77700000  *
   826       H         55.00200000  *  148.07700000  * -46.45200000  *
   827       C         53.12600000  *  148.85300000  * -47.10800000  *
   828       C         52.23100000  *  149.92200000  * -47.18600000  *
   829       H         52.46300000  *  150.85600000  * -46.69900000  *
   830       C         51.01500000  *  149.79500000  * -47.88400000  *
   831       H         50.32500000  *  150.62800000  * -47.91800000  *
   832       C         50.69700000  *  148.60300000  * -48.50200000  *
   833       H         49.75200000  *  148.50200000  * -49.02000000  *
   834       C         51.58700000  *  147.52100000  * -48.43200000  *
   835       H         51.33500000  *  146.58300000  * -48.91200000  *
   836       C         52.79500000  *  147.65400000  * -47.73300000  *
   837       H         53.46700000  *  146.81000000  * -47.67200000  *
   838       C         53.37400000  *  148.12200000  * -44.22700000  *
   839       O         52.16900000  *  148.28300000  * -44.00900000  *
   840       N         54.01600000  *  146.98100000  * -43.96600000  *
   841       H         55.00900000  *  146.90600000  * -44.17900000  *
   842       C         53.33800000  *  145.83600000  * -43.34100000  *
   843       H         52.47600000  *  145.52800000  * -43.93400000  *
   844       C         54.29200000  *  144.65000000  * -43.17000000  *
   845       H         55.15800000  *  145.02700000  * -42.63600000  *
   846       H         53.80700000  *  143.89200000  * -42.54700000  *
   847       C         54.73100000  *  144.00400000  * -44.46100000  *
   848       H         53.84700000  *  143.61400000  * -44.95900000  *
   849       H         55.19200000  *  144.69400000  * -45.15000000  *
   850       S         55.79700000  *  142.58100000  * -44.15400000  *
   851       C         57.05400000  *  143.29200000  * -43.18800000  *
   852       H         56.67800000  *  143.65800000  * -42.23500000  *
   853       H         57.80700000  *  142.53400000  * -42.98200000  *
   854       H         57.44300000  *  144.07900000  * -43.80900000  *
   855       C         52.84400000  *  146.26000000  * -41.95900000  *
   856       O         51.68200000  *  146.03200000  * -41.61400000  *
   857       N         53.72600000  *  146.88400000  * -41.17900000  *
   858       H         54.70100000  *  146.95700000  * -41.45300000  *
   859       C         53.34300000  *  147.35100000  * -39.84600000  *
   860       H         53.03400000  *  146.49700000  * -39.23800000  *
   861       C         54.50500000  *  148.07700000  * -39.15700000  *
   862       H         54.94100000  *  148.81500000  * -39.83000000  *
   863       H         54.12400000  *  148.60600000  * -38.28400000  *
   864       C         55.58400000  *  147.11500000  * -38.68500000  *
   865       O         55.26200000  *  145.90900000  * -38.57600000  *
   866       O         56.73300000  *  147.55200000  * -38.41700000  *
   867       C         52.15000000  *  148.27900000  * -39.96300000  *
   868       O         51.20300000  *  148.18000000  * -39.18700000  *
   869       N         52.18300000  *  149.16200000  * -40.95500000  *
   870       H         53.01600000  *  149.23700000  * -41.51800000  *
   871       C         51.08600000  *  150.10000000  * -41.17300000  *
   872       H         50.93100000  *  150.67400000  * -40.25800000  *
   873       C         51.42800000  *  151.06800000  * -42.31500000  *
   874       H         51.45500000  *  150.53900000  * -43.26600000  *
   875       H         50.66000000  *  151.83800000  * -42.36800000  *
   876       H         52.39300000  *  151.53600000  * -42.12800000  *
   877       C         49.78900000  *  149.37000000  * -41.49900000  *
   878       O         48.71100000  *  149.83600000  * -41.15600000  *
   879       N         49.90500000  *  148.22900000  * -42.16400000  *
   880       H         50.83800000  *  147.88500000  * -42.38200000  *
   881       C         48.74000000  *  147.45400000  * -42.57500000  *
   882       H         47.85700000  *  148.08600000  * -42.62800000  *
   883       H         48.90600000  *  147.02300000  * -43.58600000  *
   884       H         48.52600000  *  146.61900000  * -41.88800000  *
   885       H         72.54500000  *  137.05800000  * -55.15200000  *
   886       C         72.38600000  *  137.90500000  * -54.47400000  *
   887       O         73.28300000  *  138.71900000  * -54.28600000  *
   888       N         71.20100000  *  138.01500000  * -53.89800000  *
   889       H         70.47300000  *  137.31400000  * -54.05700000  *
   890       C         70.96800000  *  139.10000000  * -52.94900000  *
   891       H         71.50000000  *  140.00600000  * -53.22900000  *
   892       C         69.47700000  *  139.40500000  * -52.82500000  *
   893       H         69.09300000  *  139.71900000  * -53.79200000  *
   894       H         68.93000000  *  138.50600000  * -52.53300000  *
   895       C         69.17800000  *  140.45400000  * -51.81200000  *
   896       N         69.23000000  *  140.42300000  * -50.45900000  *
   897       C         68.94700000  *  141.69100000  * -50.01400000  *
   898       H         68.96900000  *  142.01200000  * -48.98400000  *
   899       N         68.72400000  *  142.47200000  * -51.05500000  *
   900       H         68.47200000  *  143.44500000  * -51.00700000  *
   901       C         68.85400000  *  141.75000000  * -52.15500000  *
   902       H         68.77100000  *  142.12600000  * -53.16500000  *
   903       C         71.52100000  *  138.65700000  * -51.58300000  *
   904       O         72.28000000  *  139.38000000  * -50.94700000  *
   905       N         71.11400000  *  137.47100000  * -51.14500000  *
   906       H         70.37100000  *  137.01600000  * -51.66500000  *
   907       C         71.55500000  *  136.88000000  * -49.87700000  *
   908       H         71.18200000  *  135.84900000  * -49.87900000  *
   909       C         73.07600000  *  136.85300000  * -49.83700000  *
   910       H         73.53100000  *  137.83300000  * -49.86900000  *
   911       H         73.36600000  *  136.47900000  * -48.85100000  *
   912       C         73.64700000  *  135.85900000  * -50.81700000  *
   913       H         73.29800000  *  134.87100000  * -50.67200000  *
   914       H         73.21600000  *  136.10500000  * -51.78700000  *
   915       C         75.11700000  *  136.08400000  * -50.99900000  *
   916       H         75.61200000  *  135.95400000  * -50.03300000  *
   917       H         75.49500000  *  135.33200000  * -51.69500000  *
   918       N         75.35800000  *  137.42700000  * -51.50600000  *
   919       H         74.62100000  *  138.12700000  * -51.38200000  *
   920       C         76.54800000  *  137.85900000  * -51.89000000  *
   921       N         77.59300000  *  137.04400000  * -51.81500000  *
   922       H         77.44700000  *  136.21200000  * -51.26800000  *
   923       H         78.49900000  *  137.44300000  * -51.92100000  *
   924       N         76.69000000  *  139.09300000  * -52.35600000  *
   925       H         75.86000000  *  139.69200000  * -52.33800000  *
   926       H         77.56200000  *  139.47800000  * -52.67100000  *
   927       C         71.03700000  *  137.42400000  * -48.54200000  *
   928       O         71.18700000  *  136.76800000  * -47.50900000  *
   929       N         70.43700000  *  138.60400000  * -48.51600000  *
   930       H         70.32800000  *  139.16900000  * -49.34700000  *
   931       C         69.93700000  *  139.07600000  * -47.23100000  *
   932       H         69.76500000  *  138.24900000  * -46.54100000  *
   933       C         70.93500000  *  140.04200000  * -46.56200000  *
   934       H         71.90900000  *  139.56600000  * -46.50900000  *
   935       H         71.04400000  *  140.94300000  * -47.17900000  *
   936       C         70.51300000  *  140.42800000  * -45.14700000  *
   937       O         70.17200000  *  139.51500000  * -44.35500000  *
   938       O         70.51000000  *  141.64400000  * -44.82500000  *
   939       C         68.58700000  *  139.73400000  * -47.37800000  *
   940       O         68.35000000  *  140.81000000  * -46.83500000  *
   941       N         67.68700000  *  139.08300000  * -48.11000000  *
   942       H         67.94300000  *  138.20800000  * -48.54500000  *
   943       C         66.35900000  *  139.64900000  * -48.29900000  *
   944       H         66.47700000  *  140.66700000  * -48.65900000  *
   945       C         65.54600000  *  138.81300000  * -49.28800000  *
   946       H         65.58300000  *  137.78400000  * -48.94500000  *
   947       H         64.50600000  *  139.14000000  * -49.25500000  *
   948       C         66.02700000  *  138.85500000  * -50.73600000  *
   949       H         67.06400000  *  138.52800000  * -50.78200000  *
   950       C         65.17300000  *  137.91700000  * -51.58300000  *
   951       H         64.15900000  *  138.30500000  * -51.68800000  *
   952       H         65.63400000  *  137.80700000  * -52.55000000  *
   953       H         65.13400000  *  136.93500000  * -51.11000000  *
   954       C         65.92100000  *  140.27700000  * -51.26400000  *
   955       H         66.42000000  *  140.99600000  * -50.63300000  *
   956       H         66.44200000  *  140.27500000  * -52.20900000  *
   957       H         64.88200000  *  140.56100000  * -51.39700000  *
   958       C         65.59400000  *  139.73400000  * -46.98200000  *
   959       O         65.58600000  *  138.79200000  * -46.16600000  *
   960       N         64.96100000  *  140.85800000  * -46.74000000  *
   961       H         64.96900000  *  141.59000000  * -47.43700000  *
   962       C         64.17300000  *  141.06600000  * -45.53900000  *
   963       H         63.56200000  *  140.17400000  * -45.39800000  *
   964       C         65.05200000  *  141.23000000  * -44.27800000  *
   965       H         64.41500000  *  141.28700000  * -43.39400000  *
   966       H         65.65400000  *  140.32900000  * -44.16400000  *
   967       C         65.98400000  *  142.44900000  * -44.27500000  *
   968       H         66.38800000  *  142.60100000  * -45.27200000  *
   969       H         65.42600000  *  143.33600000  * -43.97500000  *
   970       C         67.14700000  *  142.19500000  * -43.30700000  *
   971       H         66.75600000  *  141.91800000  * -42.32500000  *
   972       H         67.73000000  *  141.35700000  * -43.69900000  *
   973       C         68.05000000  *  143.42400000  * -43.15900000  *
   974       H         68.13300000  *  143.92400000  * -44.12900000  *
   975       H         67.57400000  *  144.12600000  * -42.46400000  *
   976       N         69.39900000  *  143.03100000  * -42.67200000  *
   977       H         69.87500000  *  142.44200000  * -43.36900000  *
   978       H         69.97200000  *  143.84400000  * -42.48200000  *
   979       H         69.32900000  *  142.50400000  * -41.81100000  *
   980       C         63.26900000  *  142.23200000  * -45.83100000  *
   981       O         63.63000000  *  143.07600000  * -46.65100000  *
   982       N         62.11200000  *  142.30300000  * -45.18600000  *
   983       C         61.62600000  *  141.34600000  * -44.17100000  *
   984       H         62.10000000  *  141.53200000  * -43.20900000  *
   985       H         61.74500000  *  140.31100000  * -44.47600000  *
   986       C         60.16400000  *  141.66900000  * -44.09500000  *
   987       H         59.73700000  *  141.34900000  * -43.14300000  *
   988       H         59.63700000  *  141.20600000  * -44.93200000  *
   989       C         60.16000000  *  143.18900000  * -44.24800000  *
   990       H         60.51600000  *  143.64900000  * -43.32100000  *
   991       H         59.20200000  *  143.56500000  * -44.57400000  *
   992       C         61.14500000  *  143.38000000  * -45.40300000  *
   993       H         60.63400000  *  143.20500000  * -46.34500000  *
   994       C         61.77100000  *  144.77100000  * -45.44800000  *
   995       O         61.39200000  *  145.58400000  * -46.27300000  *
   996       N         62.72200000  *  145.09600000  * -44.55500000  *
   997       H         62.96800000  *  144.41300000  * -43.85400000  *
   998       C         63.42600000  *  146.40200000  * -44.53600000  *
   999       H         62.68600000  *  147.20000000  * -44.45300000  *
  1000       C         64.37500000  *  146.49000000  * -43.32700000  *
  1001       H         65.06500000  *  145.64600000  * -43.35200000  *
  1002       H         64.96400000  *  147.40500000  * -43.41700000  *
  1003       C         63.66400000  *  146.53400000  * -41.96900000  *
  1004       H         62.96100000  *  147.36800000  * -41.96700000  *
  1005       H         63.11000000  *  145.60900000  * -41.81800000  *
  1006       C         64.65300000  *  146.69600000  * -40.81300000  *
  1007       O         65.66700000  *  146.01700000  * -40.72700000  *
  1008       N         64.40000000  *  147.58300000  * -39.87500000  *
  1009       H         65.06200000  *  147.67900000  * -39.11900000  *
  1010       H         63.59300000  *  148.18500000  * -39.93300000  *
  1011       C         64.26500000  *  146.69000000  * -45.79800000  *
  1012       O         64.47500000  *  147.84500000  * -46.15900000  *
  1013       N         64.74400000  *  145.63900000  * -46.46800000  *
  1014       H         64.44800000  *  144.72100000  * -46.16800000  *
  1015       C         65.52900000  *  145.69700000  * -47.70100000  *
  1016       H         66.09900000  *  146.62800000  * -47.72500000  *
  1017       C         66.53200000  *  144.51300000  * -47.71900000  *
  1018       H         66.01100000  *  143.58500000  * -47.50400000  *
  1019       H         66.94900000  *  144.41600000  * -48.71800000  *
  1020       C         67.71800000  *  144.65400000  * -46.77300000  *
  1021       O         67.96400000  *  145.68900000  * -46.17700000  *
  1022       N         68.50900000  *  143.62000000  * -46.59800000  *
  1023       H         69.34700000  *  143.73800000  * -46.05300000  *
  1024       H         68.28300000  *  142.68700000  * -46.92900000  *
  1025       C         64.63400000  *  145.71600000  * -48.96000000  *
  1026       O         65.16700000  *  145.64200000  * -50.06500000  *
  1027       N         63.30000000  *  145.80300000  * -48.83400000  *
  1028       H         62.89500000  *  145.87300000  * -47.90900000  *
  1029       C         62.40600000  *  145.84500000  * -49.97900000  *
  1030       H         62.94700000  *  145.74800000  * -50.91900000  *
  1031       C         61.36900000  *  144.72100000  * -49.88900000  *
  1032       H         60.76900000  *  144.86100000  * -48.99200000  *
  1033       H         60.74400000  *  144.79800000  * -50.77200000  *
  1034       C         62.03600000  *  143.32400000  * -49.85900000  *
  1035       H         62.67100000  *  143.24000000  * -48.98800000  *
  1036       C         61.00200000  *  142.26000000  * -49.77100000  *
  1037       H         60.24600000  *  142.42800000  * -50.53400000  *
  1038       H         61.44700000  *  141.27100000  * -49.89000000  *
  1039       H         60.52000000  *  142.31900000  * -48.79800000  *
  1040       C         62.89500000  *  143.12600000  * -51.08400000  *
  1041       H         63.82900000  *  143.66800000  * -50.95600000  *
  1042       H         63.12900000  *  142.06900000  * -51.20900000  *
  1043       H         62.39300000  *  143.49200000  * -51.96600000  *
  1044       C         61.76300000  *  147.21800000  * -49.95200000  *
  1045       O         61.15000000  *  147.60200000  * -48.96600000  *
  1046       N         61.89200000  *  147.98600000  * -51.02700000  *
  1047       H         62.38500000  *  147.61800000  * -51.83500000  *
  1048       C         61.44400000  *  149.37800000  * -51.05300000  *
  1049       H         61.04900000  *  149.66900000  * -50.08200000  *
  1050       C         62.61900000  *  150.30200000  * -51.35900000  *
  1051       H         62.95100000  *  150.12000000  * -52.38200000  *
  1052       H         62.25300000  *  151.32200000  * -51.28300000  *
  1053       C         63.81800000  *  150.13300000  * -50.41600000  *
  1054       H         64.24000000  *  149.13700000  * -50.53000000  *
  1055       C         64.86100000  *  151.15700000  * -50.81600000  *
  1056       H         64.50100000  *  152.15200000  * -50.56300000  *
  1057       H         65.78600000  *  150.94400000  * -50.28500000  *
  1058       H         65.04900000  *  151.12600000  * -51.88200000  *
  1059       C         63.48400000  *  150.36100000  * -48.94400000  *
  1060       H         62.85200000  *  149.55400000  * -48.58500000  *
  1061       H         64.39900000  *  150.35900000  * -48.35300000  *
  1062       H         62.97000000  *  151.31200000  * -48.81300000  *
  1063       C         60.32600000  *  149.56600000  * -52.06100000  *
  1064       O         60.42600000  *  149.10400000  * -53.18600000  *
  1065       N         59.26800000  *  150.25600000  * -51.67700000  *
  1066       H         59.36500000  *  150.76300000  * -50.80000000  *
  1067       C         58.08300000  *  150.44700000  * -52.50800000  *
  1068       H         58.17300000  *  149.92400000  * -53.45700000  *
  1069       C         56.81900000  *  149.90600000  * -51.78600000  *
  1070       H         55.94300000  *  150.08700000  * -52.41500000  *
  1071       C         56.95000000  *  148.40400000  * -51.54300000  *
  1072       H         57.75300000  *  148.18300000  * -50.83300000  *
  1073       H         56.01300000  *  148.00400000  * -51.15200000  *
  1074       H         57.15800000  *  147.91500000  * -52.48900000  *
  1075       C         56.64700000  *  150.60600000  * -50.43300000  *
  1076       H         57.48200000  *  150.38000000  * -49.77500000  *
  1077       H         56.60500000  *  151.68300000  * -50.57600000  *
  1078       C         55.37000000  *  150.22200000  * -49.68600000  *
  1079       H         55.48900000  *  149.24800000  * -49.22200000  *
  1080       H         55.17000000  *  150.96500000  * -48.91000000  *
  1081       H         54.52900000  *  150.16800000  * -50.38500000  *
  1082       C         57.87200000  *  151.93000000  * -52.81700000  *
  1083       O         58.38200000  *  152.79400000  * -52.10000000  *
  1084       N         57.14900000  *  152.22000000  * -53.89700000  *
  1085       H         56.70500000  *  151.48200000  * -54.43300000  *
  1086       C         56.84100000  *  153.60200000  * -54.22700000  *
  1087       H         57.16800000  *  154.27800000  * -53.43100000  *
  1088       C         57.50400000  *  154.05300000  * -55.54100000  *
  1089       H         57.21800000  *  155.07000000  * -55.80500000  *
  1090       H         58.58200000  *  154.04400000  * -55.38800000  *
  1091       C         57.19300000  *  153.14600000  * -56.70100000  *
  1092       O         56.13500000  *  152.53500000  * -56.76400000  *
  1093       N         58.11500000  *  153.07200000  * -57.64100000  *
  1094       H         57.83300000  *  152.61700000  * -58.48600000  *
  1095       H         58.88600000  *  153.71500000  * -57.62100000  *
  1096       C         55.33100000  *  153.75800000  * -54.32100000  *
  1097       O         54.57600000  *  152.79900000  * -54.11400000  *
  1098       N         54.88500000  *  154.97100000  * -54.62100000  *
  1099       H         55.52100000  *  155.73600000  * -54.79200000  *
  1100       C         53.46400000  *  155.24700000  * -54.72300000  *
  1101       H         52.92700000  *  154.82600000  * -53.87200000  *
  1102       C         53.20900000  *  156.78000000  * -54.75500000  *
  1103       H         52.16900000  *  156.98000000  * -55.02600000  *
  1104       C         53.47800000  *  157.39700000  * -53.41000000  *
  1105       H         54.52100000  *  157.25500000  * -53.13000000  *
[...]
 1005  H   0.83010
 1006  C   1.06510   0.79446   0.73705   0.79759
 1007  O   1.87715   1.41002   1.58573   1.82360
 1008  N   1.52713   1.35348   1.40011   1.31912
 1009  H   0.65735
 1010  H   0.66259
 1011  C   1.08298   0.75706   0.78106   0.81478
 1012  O   1.88444   1.66445   1.31242   1.73232
 1013  N   1.55096   1.50330   1.20203   1.30459
 1014  H   0.66550
 1015  C   1.07290   0.94629   1.09180   0.82292
 1016  H   0.80566
 1017  C   1.07006   1.05620   1.09207   1.15546
 1018  H   0.82970
 1019  H   0.79642
 1020  C   1.05867   0.79835   0.76378   0.76849
 1021  O   1.87567   1.77733   1.43247   1.58468
 1022  N   1.53090   1.31711   1.20875   1.56395
 1023  H   0.66762
 1024  H   0.65505
 1025  C   1.08752   0.78447   0.72017   0.85343
 1026  O   1.87898   1.76196   1.60964   1.38356
 1027  N   1.54112   1.12581   1.66578   1.18372
 1028  H   0.65420
 1029  C   1.06988   0.96855   0.97990   0.97404
 1030  H   0.81167
 1031  C   1.06728   1.06419   0.99768   1.17264
 1032  H   0.83724
 1033  H   0.84811
 1034  C   1.04100   1.01195   0.94641   1.06200
 1035  H   0.85573
 1036  C   1.04918   1.12577   1.11839   1.17082
 1037  H   0.84485
 1038  H   0.84898
 1039  H   0.86552
 1040  C   1.05150   1.14105   1.17174   1.09938
 1041  H   0.84573
 1042  H   0.85752
 1043  H   0.84966
 1044  C   1.07653   0.74958   0.84324   0.75526
 1045  O   1.87180   1.53857   1.79761   1.44586
 1046  N   1.54579   1.55544   1.17150   1.24786
 1047  H   0.64541
 1048  C   1.06510   0.99019   0.82533   1.09931
 1049  H   0.81466
 1050  C   1.06477   1.02212   1.10410   1.12743
 1051  H   0.84708
 1052  H   0.83950
 1053  C   1.04817   0.96648   1.07273   0.96843
 1054  H   0.86666
 1055  C   1.05415   1.12329   1.13076   1.16569
 1056  H   0.84549
 1057  H   0.84910
 1058  H   0.85986
 1059  C   1.05464   1.17655   1.17692   1.04591
 1060  H   0.84033
 1061  H   0.85242
 1062  H   0.84750
 1063  C   1.07596   0.79771   0.74322   0.81722
 1064  O   1.86922   1.83093   1.62437   1.34294
 1065  N   1.54202   1.18953   1.47143   1.29609
 1066  H   0.64384
 1067  C   1.07589   0.88875   1.00574   1.04155
 1068  H   0.81033
 1069  C   1.06435   1.01606   0.99313   1.01970
 1070  H   0.85003
 1071  C   1.05459   1.18101   1.03401   1.17661
 1072  H   0.84353
 1073  H   0.84516
 1074  H   0.85325
 1075  C   1.05394   1.06892   1.11969   1.03162
 1076  H   0.84672
 1077  H   0.86134
 1078  C   1.05255   1.08981   1.15783   1.13223
 1079  H   0.84824
 1080  H   0.87718
 1081  H   0.84666
 1082  C   1.08637   0.74167   0.88788   0.74198
 1083  O   1.88667   1.56942   1.57715   1.55754
 1084  N   1.54292   1.50717   1.14385   1.33762
 1085  H   0.64337
 1086  C   1.06231   0.97213   0.88425   1.03710
 1087  H   0.80571
 1088  C   1.07261   1.18080   1.12854   1.02361
 1089  H   0.80875
 1090  H   0.80408
 1091  C   1.06086   0.76180   0.77081   0.82348
 1092  O   1.88009   1.35592   1.56947   1.83562
 1093  N   1.53408   1.29760   1.49482   1.27194
 1094  H   0.67187
 1095  H   0.66464
 1096  C   1.08299   0.88519   0.75965   0.71378
 1097  O   1.88784   1.65390   1.46822   1.58803
 1098  N   1.54009   1.14532   1.19746   1.67214
 1099  H   0.66320
 1100  C   1.08560   0.83698   1.05826   1.08278
 1101  H   0.80374
 1102  C   1.08425   0.99149   0.86670   0.88985
 1103  H   0.84704
 1104  C   1.05378   1.18339   1.18052   1.05442
 1105  H   0.84177
 1106  H   0.82406
 1107  H   0.82930
 1108  O   1.84880   1.59239   1.82295   1.34535
 1109  H   0.64237
 1110  C   1.07329   0.78903   0.75559   0.82403
 1111  O   1.87787   1.27989   1.68889   1.84868
 1112  N   1.53329   1.19335   1.53464   1.21093
 1113  H   0.66705
 1114  C   1.05710   1.15381   1.13341   0.89307
 1115  H   0.83546
 1116  H   0.83770
 1117  H   0.83546
 1118  H   0.83968
 1119  C   1.10507   0.75484   0.73534   0.91344
 1120  O   1.88314   1.71076   1.59674   1.48270
 1121  N   1.54487   1.42813   1.34570   1.20817
 1122  H   0.65354
 1123  C   1.08070   0.93114   1.08423   0.93137
 1124  H   0.80960
 1125  C   1.07314   1.07910   0.95388   0.98254
 1126  H   0.84390
 1127  C   1.05811   1.18711   1.08403   1.12926
 1128  H   0.84362
 1129  H   0.84847
 1130  H   0.85206
 1131  C   1.05414   1.07583   1.13447   1.01864
 1132  H   0.85373
 1133  H   0.85471
 1134  C   1.04916   1.14382   1.15110   1.09055
 1135  H   0.84989
 1136  H   0.85977
 1137  H   0.84937
 1138  C   1.07218   0.84173   0.73687   0.77779
 1139  O   1.87776   1.89037   1.52070   1.39078
 1140  N   1.54466   1.10293   1.52637   1.33530
 1141  H   0.63238
 1142  C   1.06988   0.84572   1.05419   1.03734
 1143  H   0.81824
 1144  C   1.06010   1.09249   1.04567   1.09658
 1145  H   0.83553
 1146  H   0.84676
 1147  C   1.05100   1.08522   1.04425   1.07725
 1148  H   0.85069
 1149  H   0.84446
 1150  C   1.05939   1.08208   1.05431   1.09875
 1151  H   0.84109
 1152  H   0.83195
 1153  C   1.07866   1.02179   0.99756   1.07377
 1154  H   0.81238
 1155  H   0.83377
 1156  N   1.46074   1.23187   1.23211   1.25876
 1157  H   0.68926
 1158  H   0.69980
 1159  H   0.68801
 1160  C   1.07851   0.77970   0.75022   0.82553
 1161  O   1.88114   1.77274   1.69309   1.29086
 1162  N   1.54481   1.32898   1.42544   1.23087
 1163  H   0.64023
 1164  C   1.07022   0.91852   0.95742   1.02918
 1165  H   0.83227
 1166  C   1.06275   1.10010   1.01960   1.13294
 1167  H   0.83504
 1168  H   0.84543
 1169  C   1.05371   1.07063   0.96082   0.96352
 1170  H   0.85929
 1171  C   1.06223   1.16614   1.13945   1.09222
 1172  H   0.85202
 1173  H   0.84901
 1174  H   0.85258
 1175  C   1.05740   1.18279   1.13707   1.08871
 1176  H   0.85369
 1177  H   0.84794
 1178  H   0.85443
 1179  C   1.08409   0.79308   0.79888   0.75884
 1180  O   1.88080   1.63588   1.59932   1.53785
 1181  N   1.54256   1.36705   1.43705   1.16095
 1182  H   0.64530
 1183  C   1.06668   0.91642   0.92679   1.04869
 1184  H   0.83169
 1185  C   1.05964   1.16189   1.07642   1.16306
 1186  H   0.82167
 1187  H   0.83627
 1188  H   0.82430
 1189  C   1.08811   0.78455   0.78340   0.75147
 1190  O   1.87219   1.83397   1.36565   1.59690
 1191  N   1.54669   1.17344   1.32686   1.48971
 1192  H   0.67188
 1193  C   1.07536   0.88299   1.07515   0.93194
 1194  H   0.81979
 1195  C   1.07768   1.15001   1.16745   1.01970
 1196  H   0.80993
 1197  H   0.83486
 1198  C   1.07028   0.73393   0.73825   0.69257
 1199  O   1.88723   1.66465   1.46843   1.70333
 1200  O   1.87161   1.80879   1.44875   1.74783
 1201  C   1.08872   0.81752   0.79555   0.75144
 1202  O   1.88688   1.29004   1.79395   1.57713
 1203  N   1.56659   1.29139   1.17114   1.53724
 1204  H   0.68185
 1205  C   1.08002   1.02256   0.91635   0.95364
 1206  H   0.83923
 1207  C   1.05575   1.07801   1.20278   0.96272
 1208  H   0.81404
 1209  H   0.81874
 1210  C   1.07463   0.97359   0.97744   0.97010
 1211  C   1.09014   1.04122   1.04108   1.01354
 1212  H   0.83914
 1213  C   1.08879   0.98512   1.06199   1.00998
 1214  H   0.84170
 1215  C   1.08754   1.05971   0.99123   1.03155
 1216  H   0.84736
 1217  C   1.08929   1.03671   1.03657   0.98966
 1218  H   0.83208
 1219  C   1.08689   0.98726   1.06345   1.02486
 1220  H   0.84063
 1221  C   1.08839   0.80298   0.77395   0.76443
 1222  O   1.88523   1.44405   1.55955   1.71442
 1223  N   1.53925   1.41487   1.43647   1.13534
 1224  H   0.68318
 1225  C   1.06851   0.98826   1.06712   0.98195
 1226  H   0.81206
 1227  H   0.80750
 1228  C   1.07938   0.82860   0.77922   0.70658
 1229  O   1.87675   1.84136   1.32540   1.61359
 1230  N   1.55746   1.29697   1.23256   1.44607
 1231  H   0.67351
 1232  C   1.07734   0.89831   1.03256   0.96626
 1233  H   0.83535
 1234  C   1.06797   1.11149   0.95100   1.17700
 1235  H   0.83466
 1236  H   0.83010
 1237  C   1.05173   1.03335   0.96138   1.00911
 1238  H   0.86385
 1239  C   1.05602   1.16834   1.06698   1.16453
 1240  H   0.85717
 1241  H   0.84477
 1242  H   0.85552
 1243  C   1.05564   1.17084   1.18826   1.04804
 1244  H   0.84186
 1245  H   0.84279
 1246  H   0.85747
 1247  C   1.09488   0.85705   0.76447   0.72346
 1248  O   1.88109   1.32550   1.78548   1.59442
 1249  N   1.58230   1.28156   1.23443   1.52193
 1250  H   0.66077
 1251  C   1.06821   0.96362   0.99672   0.95545
 1252  H   0.83601
 1253  C   1.05863   1.14019   1.09765   1.17417
 1254  H   0.84428
 1255  H   0.81090
 1256  H   0.81031
 1257  C   1.07604   0.83436   0.75148   0.78110
 1258  O   1.88386   1.50028   1.60007   1.64963
 1259  N   1.54298   1.31111   1.51254   1.14431
 1260  H   0.67594
 1261  C   1.06245   0.92455   1.14574   1.10579
 1262  H   0.82660
 1263  H   0.82994
 1264  H   0.83906
 1265  H   0.84216
 1266  C   1.10448   0.72524   0.79425   0.87711
 1267  O   1.88382   1.53350   1.36209   1.88326
 1268  N   1.54266   1.48685   1.35092   1.14848
 1269  H   0.67729
 1270  C   1.07286   1.11785   0.96752   0.82172
 1271  H   0.80349
 1272  C   1.05800   1.09211   1.02696   1.14973
 1273  H   0.83319
 1274  H   0.82248
 1275  C   1.06413   0.97654   0.94910   0.96725
 1276  C   1.08238   1.02058   0.99423   1.05804
 1277  H   0.84114
 1278  C   1.08183   1.04749   1.02782   0.99921
 1279  H   0.84667
 1280  C   1.08089   1.00803   1.05550   1.02610
 1281  H   0.85118
 1282  C   1.08036   1.02371   1.00303   1.05465
 1283  H   0.85553
 1284  C   1.08316   1.05716   1.02528   0.99506
 1285  H   0.84006
 1286  C   1.08066   0.76574   0.78587   0.79862
 1287  O   1.88384   1.53935   1.68063   1.53398
 1288  N   1.53699   1.17739   1.34786   1.43213
 1289  H   0.67035
 1290  C   1.05820   1.14178   0.97763   0.99744
 1291  H   0.81370
 1292  H   0.78674
 1293  C   1.07325   0.78184   0.75150   0.80229
 1294  O   1.87210   1.55684   1.40032   1.83892
 1295  N   1.53449   1.40613   1.37153   1.17547
 1296  H   0.64791
 1297  C   1.07487   1.00365   1.20108   0.87850
 1298  H   0.80897
 1299  H   0.79336
 1300  C   1.08113   0.77431   0.74571   0.80720
 1301  O   1.88288   1.52188   1.53285   1.73132
 1302  N   1.56530   1.44485   1.16723   1.26728
 1303  C   1.07056   1.06979   0.86709   1.05573
 1304  H   0.83594
 1305  H   0.83910
 1306  C   1.05732   1.04570   1.13974   1.05917
 1307  H   0.84678
 1308  H   0.80349
 1309  C   1.06105   1.08282   0.98319   1.17210
 1310  H   0.83530
 1311  H   0.81951
 1312  C   1.07350   1.05210   1.00124   0.86753
 1313  H   0.81337
 1314  C   1.08832   0.76339   0.76830   0.82870
 1315  O   1.88393   1.42712   1.43567   1.88334
 1316  N   1.54314   1.40352   1.48386   1.11751
 1317  H   0.64353
 1318  C   1.08217   1.04962   1.11406   0.89133
 1319  H   0.80106
 1320  H   0.78753
 1321  C   1.08827   0.82551   0.73030   0.77835
 1322  O   1.88491   1.70325   1.72962   1.32960
 1323  N   1.55105   1.23216   1.41125   1.34479
 1324  H   0.68801
 1325  C   1.07566   0.86033   1.06412   0.97853
 1326  H   0.82206
 1327  C   1.05960   1.16882   1.07553   0.97649
 1328  H   0.83472
 1329  H   0.83911
 1330  C   1.05817   1.13845   1.07475   1.02373
 1331  H   0.82458
 1332  H   0.87165
 1333  C   1.06376   1.08748   1.10000   0.78144
 1334  H   0.85050
 1335  H   0.81928
 1336  N   1.53280   1.62695   1.28989   1.09337
 1337  H   0.64877
 1338  C   0.97598   0.83626   0.80288   0.79452
 1339  N   1.50145   1.56336   1.25853   1.24813
 1340  H   0.67466
 1341  H   0.62642
 1342  N   1.50406   1.55704   1.35351   1.14119
 1343  H   0.64457
 1344  H   0.63727
 1345  C   1.08268   0.75720   0.77378   0.84398
 1346  O   1.88771   1.48019   1.64680   1.56773
 1347  N   1.54262   1.54561   1.19717   1.23952
 1348  H   0.67292
 1349  C   1.08979   1.00054   1.01001   0.92077
 1350  H   0.80219
 1351  C   1.08631   0.93158   0.92710   0.87794
 1352  H   0.85017
 1353  C   1.05852   1.09797   1.12855   1.20526
 1354  H   0.82420
 1355  H   0.83387
 1356  H   0.83095
 1357  O   1.84296   1.58285   1.64075   1.56954
 1358  H   0.62621
 1359  C   1.07893   0.81332   0.79151   0.76319
 1360  O   1.88748   1.53666   1.79100   1.36944
 1361  N   1.55254   1.32716   1.29588   1.37687
 1362  H   0.65272
 1363  C   1.07402   0.98841   0.92743   0.99326
 1364  H   0.81788
 1365  C   1.05792   1.09585   1.06838   1.08729
 1366  H   0.84099
 1367  H   0.82575
 1368  C   1.06122   0.97178   0.97482   1.05816
 1369  C   1.08279   0.97263   1.07894   0.98989
 1370  H   0.84487
 1371  C   1.08087   1.07816   0.99631   1.02211
 1372  H   0.81366
 1373  C   1.06637   0.82808   0.89526   0.91006
 1374  O   1.84146   1.46691   1.53895   1.69566
 1375  H   0.63517
 1376  C   1.07362   0.99023   1.09179   1.07121
 1377  H   0.84772
 1378  C   1.08166   1.06397   0.99895   0.99528
 1379  H   0.85948
 1380  C   1.08213   0.77620   0.73398   0.82114
 1381  O   1.88474   1.39058   1.55638   1.82940
 1382  N   1.55034   1.20064   1.60173   1.14800
 1383  H   0.66098
 1384  C   1.08716   1.11683   1.03455   0.83756
 1385  H   0.82144
 1386  C   1.08251   0.83229   0.89078   1.00020
 1387  H   0.86888
 1388  C   1.05717   1.09857   1.14092   1.18959
 1389  H   0.83060
 1390  H   0.84587
 1391  H   0.84180
 1392  O   1.84702   1.32368   1.76619   1.66660
 1393  H   0.61670
 1394  C   1.08212   0.82840   0.76392   0.79212
 1395  O   1.88735   1.29201   1.70657   1.67696
 1396  N   1.54291   1.22793   1.27113   1.47580
 1397  H   0.64939
 1398  C   1.07063   0.98384   1.04046   1.07617
 1399  H   0.84403
 1400  H   0.80892
 1401  C   1.07030   0.85091   0.72023   0.75161
 1402  O   1.88500   1.70088   1.45760   1.55933
 1403  N   1.55347   1.14733   1.51373   1.33248
 1404  H   0.68002
 1405  C   1.07068   0.82936   0.98762   1.12917
 1406  H   0.81437
 1407  C   1.05316   1.16407   0.98912   1.05163
 1408  H   0.83961
 1409  H   0.83574
 1410  C   1.05990   1.20592   1.01229   1.13842
 1411  H   0.84325
 1412  H   0.82580
 1413  C   1.06671   0.72291   0.72063   0.72857
 1414  O   1.88749   1.47191   1.82322   1.63797
 1415  O   1.88499   1.51830   1.58533   1.81430
 1416  C   1.08674   0.77112   0.86254   0.75457
 1417  O   1.88733   1.64851   1.65305   1.40958
 1418  N   1.54580   1.31029   1.19198   1.47844
 1419  H   0.65316
 1420  C   1.07214   1.06263   0.88117   1.00766
 1421  H   0.84376
 1422  C   1.05448   1.01873   1.03224   0.97085
 1423  H   0.83609
 1424  C   1.05591   1.17740   1.04877   1.19324
 1425  H   0.84551
 1426  H   0.83591
 1427  H   0.83792
 1428  C   1.05457   1.18126   1.16761   1.06155
 1429  H   0.84076
 1430  H   0.83992
 1431  H   0.85206
 1432  C   1.07560   0.77108   0.73160   0.84207
 1433  O   1.88367   1.36361   1.63751   1.76936
 1434  N   1.53826   1.27317   1.47286   1.21105
 1435  H   0.66898
 1436  C   1.07706   1.00703   1.05456   0.86793
 1437  H   0.82270
 1438  C   1.06063   1.02676   1.01605   0.97683
 1439  H   0.84060
 1440  C   1.05417   1.18408   1.09811   1.12134
 1441  H   0.84117
 1442  H   0.84083
 1443  H   0.85072
 1444  C   1.05740   1.18954   1.16692   1.05260
 1445  H   0.84582
 1446  H   0.83578
 1447  H   0.83888
 1448  C   1.08142   0.80667   0.78617   0.75098
 1449  O   1.88310   1.81185   1.47391   1.46072
 1450  N   1.53599   1.23670   1.43117   1.31657
 1451  H   0.66412
 1452  C   1.07958   0.90451   0.96813   1.14814
 1453  H   0.80525
 1454  C   1.07973   0.93509   0.82447   0.98336
 1455  H   0.86619
 1456  C   1.05746   1.09524   1.13585   1.19614
 1457  H   0.82489
 1458  H   0.82211
 1459  H   0.84146
 1460  O   1.84756   1.47783   1.49389   1.78184
 1461  H   0.64861
 1462  C   1.07077   0.75356   0.82656   0.79808
 1463  O   1.88056   1.50714   1.88266   1.36451
 1464  N   1.53716   1.55033   1.12169   1.29447
 1465  H   0.65704
 1466  C   1.05410   1.16770   0.87328   1.13576
 1467  H   0.83030
 1468  H   0.83688
 1469  H   0.85133
 1470  H   0.82729
 1471  C   1.10847   0.72192   0.77567   0.90299
 1472  O   1.87917   1.50031   1.39722   1.89103
 1473  N   1.54806   1.50780   1.35865   1.13684
 1474  H   0.67050
 1475  C   1.07820   1.08302   1.04077   0.80193
 1476  H   0.80369
 1477  C   1.05904   1.13434   0.99964   1.10166
 1478  H   0.81853
 1479  H   0.82220
 1480  C   1.06602   0.97581   0.99268   1.00496
 1481  C   1.08223   0.99077   1.02514   1.00498
 1482  H   0.83765
 1483  C   1.07633   1.10498   1.04973   1.06617
 1484  H   0.82047
 1485  C   1.07249   0.88653   0.88221   0.88004
 1486  O   1.83869   1.35491   1.61291   1.73276
 1487  H   0.61925
 1488  C   1.07859   0.98856   1.09950   1.09652
 1489  H   0.82126
 1490  C   1.08813   1.07868   0.97896   0.96924
 1491  H   0.83503
 1492  C   1.08087   0.79998   0.76889   0.79198
 1493  O   1.88630   1.81390   1.69947   1.28041
 1494  N   1.53471   1.25586   1.50896   1.18458
 1495  H   0.67090
 1496  C   1.06143   0.92035   1.08953   1.16676
 1497  H   0.83446
 1498  H   0.82973
 1499  H   0.83853
 1500  H   0.82500
 1501  C   1.10799   0.78631   0.88383   0.71626
 1502  O   1.88012   1.43036   1.87072   1.50908
 1503  N   1.55065   1.37513   1.18538   1.44525
 1504  H   0.64436
 1505  C   1.07867   0.96568   0.86314   1.12894
 1506  H   0.81503
 1507  C   1.05975   0.97992   0.99675   1.07643
 1508  H   0.84641
 1509  C   1.05204   1.15822   1.06256   1.17604
 1510  H   0.84450
 1511  H   0.84463
 1512  H   0.84169
 1513  C   1.04780   0.99992   1.12968   1.08504
 1514  H   0.86664
 1515  H   0.85358
 1516  C   1.04900   1.11609   1.12966   1.14936
 1517  H   0.85859
 1518  H   0.85751
 1519  H   0.84122
 1520  C   1.07237   0.85960   0.73791   0.75019
 1521  O   1.87626   1.57614   1.55609   1.67373
 1522  N   1.54215   1.18494   1.41747   1.37457
 1523  H   0.66209
 1524  C   1.07134   0.87894   1.16323   1.10823
 1525  H   0.84317
 1526  H   0.83234
 1527  H   0.83424
 1528  H   0.82780
 1529  C   1.10755   0.84812   0.73307   0.82094
 1530  O   1.88536   1.81629   1.62610   1.36643
 1531  N   1.53782   1.25349   1.40328   1.30546
 1532  H   0.64777
 1533  C   1.05912   0.89166   1.04058   1.02413
 1534  H   0.81957
 1535  C   1.06064   1.03218   1.11443   1.11505
 1536  H   0.82469
 1537  H   0.84724
 1538  C   1.04446   0.99032   0.96355   1.05943
 1539  H   0.88084
 1540  C   1.05456   1.16321   1.06794   1.18088
 1541  H   0.83793
 1542  H   0.84777
 1543  H   0.85379
 1544  C   1.05254   1.12351   1.17226   1.10873
 1545  H   0.85752
 1546  H   0.84736
 1547  H   0.84096
 1548  C   1.07862   0.72939   0.86477   0.77484
 1549  O   1.88189   1.57549   1.45132   1.73515
 1550  N   1.54000   1.57306   1.21251   1.19371
 1551  H   0.66145
 1552  C   1.07186   1.01914   0.93486   0.96171
 1553  H   0.81159
 1554  C   1.05671   1.17074   1.07951   0.99171
 1555  H   0.82420
 1556  H   0.82590
 1557  C   1.05681   1.12993   1.08789   1.03623
 1558  H   0.85325
 1559  H   0.82420
 1560  C   1.06363   1.15819   0.94491   0.90195
 1561  H   0.81636
 1562  H   0.83543
 1563  N   1.52415   1.16148   1.42470   1.39818
 1564  H   0.63978
 1565  C   0.99140   0.79133   0.81234   0.81837
 1566  N   1.51719   1.11635   1.46810   1.48665
 1567  H   0.65574
 1568  H   0.63928
 1569  N   1.50867   1.25120   1.39993   1.41137
 1570  H   0.64204
 1571  H   0.64050
 1572  C   1.08179   0.87191   0.77081   0.74378
 1573  O   1.88720   1.60966   1.60081   1.53009
 1574  N   1.53974   1.17479   1.27127   1.51484
 1575  H   0.65672
 1576  C   1.07442   0.85640   1.08608   1.03941
 1577  H   0.82236
 1578  C   1.06139   1.16465   1.09818   0.98344
 1579  H   0.84189
 1580  H   0.83804
 1581  C   1.04768   1.08168   0.96048   0.94842
 1582  H   0.86921
 1583  C   1.05597   1.17143   1.16298   1.07736
 1584  H   0.85457
 1585  H   0.86147
 1586  H   0.84643
 1587  C   1.05684   1.15831   1.09200   1.15809
 1588  H   0.85136
 1589  H   0.86091
 1590  H   0.84451
 1591  C   1.08288   0.71492   0.76195   0.70277
 1592  O   1.88399   1.46769   1.86986   1.62371
 1593  O   1.88771   1.54665   1.59339   1.80235

 **********************
 *                    *
 * JOB ENDED NORMALLY *
 *                    *
 **********************



 TOTAL JOB TIME:            42.97 SECONDS

 == MOPAC DONE ==
