 *******************************************************************************
 **                                                                           **
 **                              MOPAC v23.2.2                                **
 **                                                                           **
 *******************************************************************************
 **          Digital Object Identifier (DOI): 10.5281/zenodo.6511958          **
 **    Visit the DOI location for information on how to cite this program.    **
 *******************************************************************************

                              PM7 CALCULATION RESULTS

 *******************************************************************************
 *  CALCULATION DONE: (MAX THREADS = 12)             Tue Jan 27 16:05:16 2026  *
 *  PM7        - The PM7 Hamiltonian to be used
 *  MOZYME     - USE LOCALIZED M.O.s IN SOLVING THE SCF EQUATIONS
 *
 *
 *
 *                 CHARGE ON SYSTEM = +2
 *
 *
 *
 *  EPS=78.4   - USE ANDREAS KLAMT'S COSMO IMPLICIT SOLVATION MODEL
 *  1SCF       - DO 1 SCF AND THEN STOP 
 *  T=         - A TIME OF 172800.0 SECONDS REQUESTED
 *  DUMP=N     - RESTART FILE WRITTEN EVERY 7200.0 SECONDS REQUESTED
 *******************************************************************************
PM7 1SCF MOZYME CHARGE=2 EPS=78.4


   ATOM   CHEMICAL          X               Y               Z
  NUMBER   SYMBOL      (ANGSTROMS)     (ANGSTROMS)     (ANGSTROMS)

     1       H         71.69100000  *  165.23700000  * -45.36000000  *
     2       C         70.72700000  *  165.64400000  * -45.02500000  *
     3       O         70.67100000  *  166.69300000  * -44.40000000  *
     4       N         69.64800000  *  164.94600000  * -45.35400000  *
     5       H         69.74300000  *  164.08600000  * -45.86500000  *
     6       C         68.31800000  *  165.37700000  * -44.95100000  *
     7       H         68.30400000  *  166.44500000  * -44.75000000  *
     8       C         67.27900000  *  165.08100000  * -46.05800000  *
     9       H         67.27200000  *  164.02200000  * -46.29800000  *
    10       C         65.89200000  *  165.46600000  * -45.59200000  *
    11       H         65.46400000  *  166.22900000  * -46.24500000  *
    12       H         65.23700000  *  164.60600000  * -45.62700000  *
    13       H         65.87600000  *  165.89500000  * -44.58400000  *
    14       C         67.63700000  *  165.85600000  * -47.31700000  *
    15       H         68.59400000  *  165.52900000  * -47.70800000  *
    16       H         66.87900000  *  165.66900000  * -48.07700000  *
    17       H         67.68800000  *  166.92100000  * -47.10100000  *
    18       C         67.91500000  *  164.66400000  * -43.65700000  *
    19       O         67.55300000  *  165.30600000  * -42.67600000  *
    20       N         67.98400000  *  163.33800000  * -43.65800000  *
    21       H         68.28400000  *  162.85200000  * -44.48600000  *
    22       C         67.62300000  *  162.54400000  * -42.48700000  *
    23       H         67.90600000  *  163.07600000  * -41.58100000  *
    24       C         66.12800000  *  162.23500000  * -42.45900000  *
    25       H         65.92600000  *  161.47400000  * -43.20900000  *
    26       H         65.88500000  *  161.80700000  * -41.48800000  *
    27       C         65.21300000  *  163.39800000  * -42.74000000  *
    28       H         65.33100000  *  164.15700000  * -41.96400000  *
    29       H         65.45900000  *  163.81400000  * -43.69700000  *
    30       C         63.76600000  *  162.97200000  * -42.82400000  *
    31       O         63.44700000  *  162.11400000  * -43.67900000  *
    32       O         62.94800000  *  163.49400000  * -42.03400000  *
    33       C         68.34700000  *  161.22200000  * -42.57700000  *
    34       O         68.73000000  *  160.78800000  * -43.66100000  *
    35       N         68.52400000  *  160.57500000  * -41.43500000  *
    36       H         68.03000000  *  160.89100000  * -40.60600000  *
    37       C         69.17300000  *  159.28200000  * -41.42100000  *
    38       H         69.95100000  *  159.22100000  * -42.17800000  *
    39       C         69.75600000  *  159.01000000  * -40.03200000  *
    40       H         70.21900000  *  159.94300000  * -39.71800000  *
    41       H         68.96300000  *  158.79100000  * -39.31600000  *
    42       C         70.79800000  *  157.89600000  * -39.98300000  *
    43       H         70.31100000  *  156.94100000  * -40.17400000  *
    44       H         71.53800000  *  158.07300000  * -40.76900000  *
    45       C         71.50100000  *  157.83200000  * -38.61800000  *
    46       H         70.74900000  *  157.59000000  * -37.86000000  *
    47       H         72.23100000  *  157.01800000  * -38.63800000  *
    48       C         72.18600000  *  159.16200000  * -38.26900000  *
    49       H         72.83200000  *  159.42500000  * -39.10900000  *
    50       H         71.41200000  *  159.93100000  * -38.15600000  *
    51       N         73.00000000  *  159.10500000  * -37.02500000  *
    52       H         73.70000000  *  158.37000000  * -37.07400000  *
    53       H         73.43800000  *  159.98800000  * -36.79300000  *
    54       H         72.39100000  *  158.85400000  * -36.25100000  *
    55       C         68.06200000  *  158.28700000  * -41.74800000  *
    56       O         67.16300000  *  158.08100000  * -40.94600000  *
    57       N         68.06700000  *  157.75000000  * -42.96800000  *
    58       H         68.87700000  *  157.92800000  * -43.54000000  *
    59       C         67.11400000  *  156.73000000  * -43.43200000  *
    60       H         66.11400000  *  157.16800000  * -43.45300000  *
    61       C         67.48100000  *  156.27000000  * -44.86200000  *
    62       H         68.55900000  *  156.34100000  * -44.98700000  *
    63       C         67.09100000  *  154.82100000  * -45.16300000  *
    64       H         66.03500000  *  154.65800000  * -44.95600000  *
    65       H         67.31600000  *  154.60500000  * -46.20000000  *
    66       H         67.67400000  *  154.13500000  * -44.55300000  *
    67       C         66.82400000  *  157.22100000  * -45.87400000  *
    68       H         65.74400000  *  157.08500000  * -45.85900000  *
    69       H         67.03500000  *  158.23200000  * -45.54400000  *
    70       C         67.33000000  *  157.06300000  * -47.31600000  *
    71       H         66.95800000  *  156.14000000  * -47.75500000  *
    72       H         66.97600000  *  157.89600000  * -47.91900000  *
    73       H         68.41600000  *  157.05400000  * -47.33500000  *
    74       C         67.05400000  *  155.56400000  * -42.44700000  *
    75       O         65.96800000  *  155.14900000  * -42.03800000  *
    76       N         68.22000000  *  155.03900000  * -42.07200000  *
    77       H         69.08400000  *  155.41900000  * -42.44400000  *
    78       C         68.29600000  *  153.85900000  * -41.23400000  *
    79       H         67.98300000  *  154.12300000  * -40.22300000  *
    80       H         67.61000000  *  153.10300000  * -41.61800000  *
    81       C         69.68600000  *  153.24900000  * -41.15400000  *
    82       O         70.69700000  *  153.81500000  * -41.58000000  *
    83       N         69.70600000  *  152.08800000  * -40.51700000  *
    84       H         68.81700000  *  151.68400000  * -40.26100000  *
    85       C         70.89000000  *  151.46400000  * -39.94700000  *
    86       H         71.75900000  *  152.11000000  * -40.08500000  *
    87       C         70.64900000  *  151.30900000  * -38.43600000  *
    88       H         69.82500000  *  150.61600000  * -38.26000000  *
    89       H         71.55600000  *  150.90500000  * -38.00700000  *
    90       C         70.33900000  *  152.65000000  * -37.74200000  *
    91       H         71.13100000  *  153.36300000  * -37.98100000  *
    92       H         69.40400000  *  153.05900000  * -38.13200000  *
    93       C         70.20100000  *  152.51000000  * -36.22000000  *
    94       O         69.28200000  *  151.80000000  * -35.75000000  *
    95       O         70.96600000  *  153.17100000  * -35.48100000  *
    96       C         71.15200000  *  150.14100000  * -40.68000000  *
    97       O         70.53500000  *  149.11300000  * -40.38700000  *
    98       N         71.98000000  *  150.19900000  * -41.72600000  *
    99       H         72.53000000  *  151.03900000  * -41.86600000  *
   100       C         72.08700000  *  149.14700000  * -42.74000000  *
   101       H         71.08900000  *  148.76200000  * -42.96000000  *
   102       H         72.47700000  *  149.59300000  * -43.65400000  *
   103       C         72.98200000  *  147.96100000  * -42.36500000  *
   104       O         73.52200000  *  147.86400000  * -41.26500000  *
   105       N         73.18700000  *  147.06700000  * -43.33500000  *
   106       H         72.70800000  *  147.19800000  * -44.21700000  *
   107       C         74.04200000  *  145.86300000  * -43.23100000  *
   108       H         73.76100000  *  145.30600000  * -42.33600000  *
   109       C         73.81800000  *  144.95000000  * -44.44800000  *
   110       H         74.56300000  *  144.15300000  * -44.46000000  *
   111       C         72.43300000  *  144.31400000  * -44.42300000  *
   112       H         71.65700000  *  145.07600000  * -44.49800000  *
   113       H         72.34400000  *  143.62100000  * -45.25900000  *
   114       H         72.31600000  *  143.75200000  * -43.49700000  *
   115       O         73.93300000  *  145.71600000  * -45.62200000  *
   116       H         73.38200000  *  145.30300000  * -46.32400000  *
   117       C         75.54200000  *  146.15600000  * -43.12300000  *
   118       O         76.26600000  *  145.32200000  * -42.58500000  *
   119       N         75.99900000  *  147.32900000  * -43.58800000  *
   120       H         75.32800000  *  147.90600000  * -44.06700000  *
   121       C         77.42000000  *  147.71300000  * -43.67900000  *
   122       H         78.01800000  *  147.05800000  * -43.04200000  *
   123       C         77.89900000  *  147.53800000  * -45.13100000  *
   124       H         77.31200000  *  148.19400000  * -45.77400000  *
   125       H         78.94000000  *  147.85000000  * -45.20500000  *
   126       C         77.83300000  *  146.12800000  * -45.66200000  *
   127       C         78.72500000  *  145.16500000  * -45.16100000  *
   128       H         79.45800000  *  145.43700000  * -44.41200000  *
   129       C         78.65200000  *  143.84200000  * -45.62200000  *
   130       H         79.33200000  *  143.10500000  * -45.22500000  *
   131       C         77.68700000  *  143.48600000  * -46.58900000  *
   132       O         77.58400000  *  142.20000000  * -46.99700000  *
   133       H         77.96300000  *  141.61600000  * -46.31300000  *
   134       C         76.80800000  *  144.45800000  * -47.10500000  *
   135       H         76.05800000  *  144.18100000  * -47.82800000  *
   136       C         76.88900000  *  145.78300000  * -46.64600000  *
   137       H         76.20400000  *  146.52600000  * -47.02900000  *
   138       C         77.74100000  *  149.15500000  * -43.24800000  *
   139       O         78.89500000  *  149.56400000  * -43.35200000  *
   140       N         76.76800000  *  149.94800000  * -42.79200000  *
   141       H         75.84300000  *  149.57300000  * -42.64100000  *
   142       C         76.97900000  *  151.36500000  * -42.47500000  *
   143       H         77.52000000  *  151.45000000  * -41.53600000  *
   144       H         77.59600000  *  151.81000000  * -43.24700000  *
   145       C         75.67900000  *  152.16000000  * -42.35800000  *
   146       O         74.60800000  *  151.57000000  * -42.18400000  *
   147       N         75.75500000  *  153.49500000  * -42.44900000  *
   148       H         76.58800000  *  153.89400000  * -42.85900000  *
   149       C         74.59200000  *  154.32600000  * -42.21200000  *
   150       H         73.82600000  *  153.78000000  * -41.65800000  *
   151       C         74.95900000  *  155.54800000  * -41.37000000  *
   152       H         75.70700000  *  156.13900000  * -41.89300000  *
   153       C         73.73100000  *  156.40900000  * -41.13300000  *
   154       H         72.94300000  *  155.80300000  * -40.68200000  *
   155       H         73.98600000  *  157.21200000  * -40.45000000  *
   156       H         73.36800000  *  156.84900000  * -42.06500000  *
   157       C         75.54500000  *  155.09600000  * -40.05300000  *
   158       H         76.46000000  *  154.52800000  * -40.19800000  *
   159       H         75.77700000  *  155.95300000  * -39.42300000  *
   160       H         74.80500000  *  154.48400000  * -39.53200000  *
   161       C         74.01900000  *  154.79200000  * -43.53700000  *
   162       O         74.76100000  *  155.18400000  * -44.43700000  *
   163       N         72.70000000  *  154.65600000  * -43.67600000  *
   164       H         72.15700000  *  154.32500000  * -42.88300000  *
   165       C         71.95600000  *  155.12600000  * -44.84300000  *
   166       H         72.64800000  *  155.22300000  * -45.67600000  *
   167       C         70.84700000  *  154.14900000  * -45.27200000  *
   168       H         69.99000000  *  154.25300000  * -44.60900000  *
   169       C         70.41700000  *  154.48700000  * -46.70700000  *
   170       H         71.26000000  *  154.38600000  * -47.38900000  *
   171       H         69.62400000  *  153.81600000  * -47.03100000  *
   172       H         70.04600000  *  155.50800000  * -46.76200000  *
   173       C         71.31000000  *  152.68900000  * -45.21800000  *
   174       H         72.28800000  *  152.60400000  * -45.68200000  *
   175       H         71.37600000  *  152.36600000  * -44.17700000  *
   176       H         70.59600000  *  152.04500000  * -45.73000000  *
   177       C         71.36900000  *  156.49400000  * -44.52900000  *
   178       O         70.65100000  *  156.63800000  * -43.53700000  *
   179       N         71.62500000  *  157.49000000  * -45.37400000  *
   180       H         72.23900000  *  157.32200000  * -46.16900000  *
   181       C         71.01800000  *  158.79600000  * -45.21900000  *
   182       H         70.37900000  *  158.84300000  * -44.33800000  *
   183       C         72.10000000  *  159.86100000  * -45.06900000  *
   184       H         72.79900000  *  159.78100000  * -45.90500000  *
   185       H         71.63400000  *  160.84400000  * -45.14300000  *
   186       C         72.87100000  *  159.84300000  * -43.76800000  *
   187       C         72.34700000  *  160.43100000  * -42.61900000  *
   188       H         71.37700000  *  160.90600000  * -42.66800000  *
   189       C         73.06400000  *  160.45200000  * -41.42500000  *
   190       H         72.63300000  *  160.94600000  * -40.56800000  *
   191       C         74.33000000  *  159.87400000  * -41.37100000  *
   192       O         75.04700000  *  159.90100000  * -40.18700000  *
   193       H         74.69700000  *  160.54100000  * -39.56800000  *
   194       C         74.87500000  *  159.27800000  * -42.50300000  *
   195       H         75.78500000  *  158.71900000  * -42.41900000  *
   196       C         74.14000000  *  159.26700000  * -43.69600000  *
   197       H         74.51800000  *  158.73300000  * -44.56500000  *
   198       C         70.16700000  *  159.17400000  * -46.42900000  *
   199       O         70.41800000  *  158.72400000  * -47.55600000  *
   200       N         69.02300000  *  159.82300000  * -46.21000000  *
   201       H         68.83100000  *  160.12300000  * -45.26100000  *
   202       C         68.29700000  *  160.51200000  * -47.27800000  *
   203       H         68.28100000  *  159.91100000  * -48.18900000  *
   204       C         66.85700000  *  160.85800000  * -46.84800000  *
   205       H         66.32400000  *  159.94400000  * -46.60200000  *
   206       H         66.88100000  *  161.48700000  * -45.95600000  *
   207       C         66.06100000  *  161.57000000  * -47.95400000  *
   208       H         66.54600000  *  162.51200000  * -48.21300000  *
   209       H         66.03800000  *  160.93400000  * -48.84000000  *
   210       C         64.62500000  *  161.85400000  * -47.48700000  *
   211       H         64.16300000  *  160.92600000  * -47.14500000  *
   212       H         64.65500000  *  162.55500000  * -46.65100000  *
   213       C         63.78800000  *  162.44300000  * -48.63000000  *
   214       H         64.31300000  *  163.31400000  * -49.03700000  *
   215       H         63.71400000  *  161.69100000  * -49.42500000  *
   216       N         62.42800000  *  162.84000000  * -48.17700000  *
   217       H         62.47100000  *  163.55700000  * -47.46600000  *
   218       H         61.88200000  *  163.21400000  * -48.94100000  *
   219       H         61.92000000  *  162.05700000  * -47.79200000  *
   220       C         69.11800000  *  161.75900000  * -47.50500000  *
   221       O         69.36300000  *  162.48600000  * -46.54500000  *
   222       N         69.55500000  *  162.00600000  * -48.72500000  *
   223       H         69.34400000  *  161.34200000  * -49.46700000  *
   224       C         70.34900000  *  163.18200000  * -49.01700000  *
   225       H         70.22500000  *  163.93500000  * -48.24000000  *
   226       C         71.81400000  *  162.79200000  * -49.07000000  *
   227       H         71.97800000  *  162.06700000  * -49.86400000  *
   228       H         72.42900000  *  163.67700000  * -49.23900000  *
   229       H         72.10500000  *  162.33200000  * -48.12600000  *
   230       C         69.94400000  *  163.83800000  * -50.32200000  *
   231       O         69.22100000  *  163.25100000  * -51.12800000  *
   232       N         70.40700000  *  165.06400000  * -50.52400000  *
   233       H         70.93200000  *  165.53000000  * -49.79600000  *
   234       C         70.10800000  *  165.77900000  * -51.74600000  *
   235       H         69.54100000  *  165.15900000  * -52.44400000  *
   236       H         69.52200000  *  166.69100000  * -51.53000000  *
   237       H         71.05900000  *  166.04700000  * -52.23900000  *
   238       H         68.08600000  *  164.80700000  * -56.55000000  *
   239       C         68.21200000  *  164.39600000  * -55.53600000  *
   240       O         69.28600000  *  164.50800000  * -54.94200000  *
   241       N         67.13500000  *  163.82300000  * -55.01100000  *
   242       H         66.34000000  *  163.66800000  * -55.61500000  *
   243       C         67.13600000  *  163.21200000  * -53.68800000  *
   244       H         67.86300000  *  163.70700000  * -53.05000000  *
   245       C         65.75500000  *  163.32300000  * -53.02900000  *
   246       H         64.97700000  *  163.06900000  * -53.75000000  *
   247       C         65.64800000  *  162.36600000  * -51.85200000  *
   248       H         66.47200000  *  162.51800000  * -51.15200000  *
   249       H         64.69700000  *  162.53800000  * -51.34700000  *
   250       H         65.65200000  *  161.33900000  * -52.20000000  *
   251       C         65.54000000  *  164.75000000  * -52.56600000  *
   252       H         65.62600000  *  165.42400000  * -53.41600000  *
   253       H         64.53500000  *  164.85100000  * -52.15900000  *
   254       H         66.28400000  *  165.00300000  * -51.81000000  *
   255       C         67.52600000  *  161.76000000  * -53.84700000  *
   256       O         66.97900000  *  161.02800000  * -54.68200000  *
   257       N         68.49600000  *  161.34900000  * -53.04800000  *
   258       H         68.91100000  *  161.99700000  * -52.39100000  *
   259       C         69.01100000  *  159.99200000  * -53.10200000  *
   260       H         68.34600000  *  159.34100000  * -53.67900000  *
   261       C         70.37400000  *  159.97400000  * -53.81600000  *
   262       H         70.77500000  *  158.96500000  * -53.87500000  *
   263       C         70.21400000  *  160.50700000  * -55.21300000  *
   264       H         69.95700000  *  161.56600000  * -55.19000000  *
   265       H         71.15100000  *  160.39100000  * -55.75600000  *
   266       H         69.44200000  *  159.95000000  * -55.73600000  *
   267       C         71.37900000  *  160.85000000  * -53.05700000  *
   268       H         71.56500000  *  160.44500000  * -52.06400000  *
   269       H         72.31500000  *  160.84900000  * -53.61300000  *
   270       H         71.03600000  *  161.88400000  * -52.98400000  *
   271       C         69.19200000  *  159.37200000  * -51.72900000  *
   272       O         69.02000000  *  160.03600000  * -50.68600000  *
   273       N         69.38700000  *  158.06000000  * -51.70800000  *
   274       H         69.46400000  *  157.56900000  * -52.59400000  *
   275       C         69.76000000  *  157.32000000  * -50.51900000  *
   276       H         69.47600000  *  157.87900000  * -49.62800000  *
   277       C         68.99900000  *  156.00200000  * -50.49500000  *
   278       H         69.21500000  *  155.44000000  * -51.40100000  *
   279       H         69.29600000  *  155.41800000  * -49.62300000  *
   280       H         67.93000000  *  156.20900000  * -50.44000000  *
   281       C         71.27800000  *  157.14000000  * -50.53900000  *
   282       O         71.81500000  *  156.46100000  * -51.42000000  *
   283       N         71.97000000  *  157.79100000  * -49.60300000  *
   284       H         71.44500000  *  158.28300000  * -48.88900000  *
   285       C         73.41300000  *  157.73400000  * -49.53500000  *
   286       H         73.80300000  *  157.43200000  * -50.50200000  *
   287       C         73.96100000  *  159.11400000  * -49.18200000  *
   288       H         73.49200000  *  159.84000000  * -49.85100000  *
   289       H         73.62800000  *  159.35800000  * -48.16900000  *
   290       C         75.47300000  *  159.31600000  * -49.26600000  *
   291       H         75.96900000  *  158.63700000  * -48.57100000  *
   292       C         75.94900000  *  159.02000000  * -50.68400000  *
   293       H         75.44100000  *  159.71800000  * -51.34800000  *
   294       H         77.02400000  *  159.18800000  * -50.76300000  *
   295       H         75.74700000  *  157.98700000  * -50.96800000  *
   296       C         75.80400000  *  160.74000000  * -48.87900000  *
   297       H         75.43700000  *  160.94600000  * -47.87600000  *
   298       H         76.88200000  *  160.87900000  * -48.92200000  *
   299       H         75.32000000  *  161.42900000  * -49.57600000  *
   300       C         73.82100000  *  156.71600000  * -48.48500000  *
   301       O         73.39600000  *  156.78100000  * -47.33400000  *
   302       N         74.63600000  *  155.74400000  * -48.88800000  *
   303       H         74.87100000  *  155.72300000  * -49.87900000  *
   304       C         75.13500000  *  154.63000000  * -48.06700000  *
   305       H         74.61200000  *  154.59700000  * -47.10900000  *
   306       C         74.88000000  *  153.32200000  * -48.85300000  *
   307       H         74.45400000  *  153.57000000  * -49.82600000  *
   308       H         75.82000000  *  152.80200000  * -49.04400000  *
   309       C         73.90800000  *  152.32900000  * -48.21400000  *
   310       H         73.04100000  *  152.86300000  * -47.82800000  *
   311       H         73.56500000  *  151.67000000  * -49.01000000  *
   312       C         74.56600000  *  151.48700000  * -47.10600000  *
   313       H         75.53900000  *  151.12300000  * -47.44400000  *
   314       H         74.73500000  *  152.12100000  * -46.23200000  *
   315       C         73.69800000  *  150.28200000  * -46.70100000  *
   316       H         74.15700000  *  149.81300000  * -45.82500000  *
   317       H         72.70900000  *  150.64400000  * -46.40000000  *
   318       N         73.56600000  *  149.28400000  * -47.80300000  *
   319       H         74.46600000  *  148.92800000  * -48.10200000  *
   320       H         73.00000000  *  148.47300000  * -47.52200000  *
   321       H         73.09900000  *  149.68500000  * -48.60800000  *
   322       C         76.62400000  *  154.85200000  * -47.79900000  *
   323       O         77.41800000  *  154.69400000  * -48.71800000  *
   324       N         77.01700000  *  155.22600000  * -46.58100000  *
   325       H         76.29800000  *  155.26800000  * -45.86500000  *
   326       C         78.42200000  *  155.28900000  * -46.15900000  *
   327       H         79.06600000  *  155.59300000  * -46.98900000  *
   328       C         78.56700000  *  156.26000000  * -44.97900000  *
   329       H         78.02700000  *  155.87500000  * -44.10900000  *
   330       H         79.62500000  *  156.33900000  * -44.73000000  *
   331       C         78.01500000  *  157.64300000  * -45.34000000  *
   332       H         78.45100000  *  157.95800000  * -46.27300000  *
   333       H         76.93600000  *  157.57500000  * -45.50000000  *
   334       C         78.25100000  *  158.72500000  * -44.27900000  *
   335       H         77.97800000  *  159.68000000  * -44.73200000  *
   336       H         77.56000000  *  158.53300000  * -43.46900000  *
   337       C         79.67700000  *  158.85000000  * -43.70900000  *
   338       H         80.38400000  *  158.36300000  * -44.39700000  *
   339       H         79.95000000  *  159.91100000  * -43.68600000  *
   340       N         79.78800000  *  158.26900000  * -42.33500000  *
   341       H         79.63700000  *  157.26100000  * -42.37000000  *
   342       H         80.69600000  *  158.42600000  * -41.93200000  *
   343       H         79.10400000  *  158.64600000  * -41.70100000  *
   344       C         78.82300000  *  153.89100000  * -45.72900000  *
   345       O         78.09100000  *  153.31500000  * -44.93700000  *
   346       N         79.90700000  *  153.32000000  * -46.24700000  *
   347       H         80.40500000  *  153.76400000  * -47.01000000  *
   348       C         80.34300000  *  152.02200000  * -45.76800000  *
   349       H         79.49500000  *  151.49800000  * -45.35900000  *
   350       C         80.94400000  *  151.18600000  * -46.89500000  *
   351       H         81.78600000  *  151.78200000  * -47.16900000  *
   352       C         81.42400000  *  149.85200000  * -46.34500000  *
   353       H         80.65600000  *  149.35200000  * -45.75200000  *
   354       H         81.67900000  *  149.19900000  * -47.17900000  *
   355       H         82.34500000  *  149.95700000  * -45.76100000  *
   356       C         79.89700000  *  150.97600000  * -47.99700000  *
   357       H         79.60200000  *  151.87000000  * -48.50000000  *
   358       H         80.28300000  *  150.30500000  * -48.75000000  *
   359       C         78.59100000  *  150.36100000  * -47.52600000  *
   360       H         78.17700000  *  150.90100000  * -46.69000000  *
   361       H         77.89400000  *  150.33700000  * -48.36300000  *
   362       H         78.77100000  *  149.33300000  * -47.20900000  *
   363       C         81.33300000  *  152.07100000  * -44.61400000  *
   364       O         82.16700000  *  152.98000000  * -44.51900000  *
   365       N         81.21100000  *  151.07100000  * -43.74300000  *
   366       H         80.50300000  *  150.36100000  * -43.92800000  *
   367       C         82.04400000  *  150.90200000  * -42.55200000  *
   368       H         81.47500000  *  151.18100000  * -41.66300000  *
   369       H         82.35800000  *  149.86100000  * -42.45900000  *
   370       H         82.94700000  *  151.51400000  * -42.62000000  *
   371       H         81.25700000  *  144.04600000  * -57.89900000  *
   372       C         80.50000000  *  144.84100000  * -57.88800000  *
   373       O         79.71500000  *  144.99000000  * -58.82400000  *
   374       N         80.49900000  *  145.60300000  * -56.79700000  *
   375       H         81.28000000  *  145.52500000  * -56.16600000  *
   376       C         79.57000000  *  146.70600000  * -56.61200000  *
   377       H         78.57500000  *  146.34400000  * -56.42300000  *
   378       C         80.00500000  *  147.61000000  * -55.44200000  *
   379       H         80.89800000  *  148.18000000  * -55.68500000  *
   380       C         78.90600000  *  148.60800000  * -55.12500000  *
   381       H         77.92000000  *  148.14100000  * -55.17600000  *
   382       H         79.04500000  *  148.98700000  * -54.11600000  *
   383       H         78.93800000  *  149.43600000  * -55.83300000  *
   384       C         80.32100000  *  146.76200000  * -54.20900000  *
   385       H         81.19200000  *  146.13400000  * -54.40600000  *
   386       H         80.59400000  *  147.42200000  * -53.38900000  *
   387       C         79.18400000  *  145.87900000  * -53.76500000  *
   388       H         78.77800000  *  145.31100000  * -54.59400000  *
   389       H         79.50900000  *  145.12200000  * -53.06500000  *
   390       H         78.38800000  *  146.48300000  * -53.33500000  *
   391       C         79.54300000  *  147.54500000  * -57.87900000  *
   392       O         78.48200000  *  147.77900000  * -58.45100000  *
   393       N         80.72300000  *  147.98900000  * -58.30900000  *
   394       H         81.55800000  *  147.70100000  * -57.81200000  *
   395       C         80.85900000  *  148.80400000  * -59.51100000  *
   396       H         80.33900000  *  149.74600000  * -59.38600000  *
   397       H         81.92800000  *  148.98500000  * -59.72900000  *
   398       H         80.37800000  *  148.32200000  * -60.38100000  *
   399       H         78.96400000  *  146.08700000  * -61.65600000  *
   400       C         77.87300000  *  146.08700000  * -61.51600000  *
   401       O         77.11500000  *  145.89500000  * -62.46400000  *
   402       N         77.44600000  *  146.31800000  * -60.28000000  *
   403       H         78.13400000  *  146.42500000  * -59.54900000  *
   404       C         76.02800000  *  146.35200000  * -59.94500000  *
   405       H         75.53300000  *  145.47600000  * -60.35900000  *
   406       C         75.84100000  *  146.37400000  * -58.43100000  *
   407       H         76.20500000  *  147.30400000  * -58.01800000  *
   408       H         74.76300000  *  146.35700000  * -58.24200000  *
   409       C         76.47200000  *  145.22200000  * -57.65900000  *
   410       H         77.55000000  *  145.23900000  * -57.74900000  *
   411       C         76.08000000  *  145.34100000  * -56.19200000  *
   412       H         74.99900000  *  145.23000000  * -56.07700000  *
   413       H         76.57300000  *  144.55300000  * -55.62900000  *
   414       H         76.38500000  *  146.30900000  * -55.80100000  *
   415       C         75.99600000  *  143.89000000  * -58.23600000  *
   416       H         76.41500000  *  143.73000000  * -59.22900000  *
   417       H         76.32800000  *  143.07800000  * -57.59100000  *
   418       H         74.90500000  *  143.87400000  * -58.30500000  *
   419       C         75.32200000  *  147.55900000  * -60.54800000  *
   420       O         74.09500000  *  147.56800000  * -60.66200000  *
   421       N         76.08400000  *  148.63100000  * -60.82900000  *
   422       H         77.08200000  *  148.53500000  * -60.67700000  *
   423       C         75.60100000  *  149.83300000  * -61.53400000  *
   424       H         74.83700000  *  150.33500000  * -60.94100000  *
   425       H         76.43800000  *  150.53300000  * -61.75900000  *
   426       H         75.13800000  *  149.54900000  * -62.49200000  *
   427       H         62.79000000  *  145.77200000  * -59.27600000  *
   428       C         63.71000000  *  145.72000000  * -58.67500000  *
   429       O         63.77900000  *  145.02200000  * -57.66400000  *
   430       N         64.72400000  *  146.45200000  * -59.11400000  *
   431       H         64.63800000  *  147.05100000  * -59.92700000  *
   432       C         65.97100000  *  146.53500000  * -58.38100000  *
   433       H         65.88400000  *  146.09200000  * -57.38600000  *
   434       C         67.11600000  *  145.87700000  * -59.11400000  *
   435       H         67.33600000  *  146.42600000  * -60.03000000  *
   436       C         68.35100000  *  145.87800000  * -58.21400000  *
   437       H         68.14700000  *  145.31400000  * -57.31800000  *
   438       H         69.21000000  *  145.44500000  * -58.72400000  *
   439       H         68.64100000  *  146.89000000  * -57.94500000  *
   440       C         66.72800000  *  144.44400000  * -59.47800000  *
   441       H         66.54900000  *  143.87300000  * -58.56400000  *
   442       H         65.81500000  *  144.42400000  * -60.06800000  *
   443       C         67.77400000  *  143.72700000  * -60.29600000  *
   444       H         68.68300000  *  143.57700000  * -59.72200000  *
   445       H         67.37700000  *  142.75300000  * -60.59800000  *
   446       H         68.02300000  *  144.31300000  * -61.18000000  *
   447       C         66.29500000  *  148.01000000  * -58.22000000  *
   448       O         66.21200000  *  148.78000000  * -59.18400000  *
   449       N         66.56100000  *  148.43500000  * -56.98200000  *
   450       H         66.62800000  *  147.74900000  * -56.23500000  *
   451       C         66.90100000  *  149.82900000  * -56.67100000  *
   452       H         66.08200000  *  150.47200000  * -56.98800000  *
   453       C         67.10200000  *  150.01400000  * -55.15800000  *
   454       H         67.88200000  *  149.33500000  * -54.81100000  *
   455       C         67.49300000  *  151.44500000  * -54.77300000  *
   456       H         66.67100000  *  152.12700000  * -54.97900000  *
   457       H         67.72300000  *  151.48500000  * -53.70800000  *
   458       H         68.37200000  *  151.76700000  * -55.32800000  *
   459       C         65.80200000  *  149.70000000  * -54.41600000  *
   460       H         65.52500000  *  148.65700000  * -54.53800000  *
   461       H         65.95100000  *  149.88800000  * -53.36100000  *
   462       H         64.99800000  *  150.32900000  * -54.79100000  *
   463       C         68.15700000  *  150.21900000  * -57.44500000  *
   464       O         69.19100000  *  149.55600000  * -57.32000000  *
   465       N         68.08000000  *  151.28300000  * -58.25100000  *
   466       H         67.22500000  *  151.80400000  * -58.24500000  *
   467       C         69.18900000  *  151.69800000  * -59.08000000  *
   468       H         69.52500000  *  150.81900000  * -59.63900000  *
   469       C         68.73700000  *  152.76800000  * -60.08300000  *
   470       H         67.83400000  *  152.41100000  * -60.57900000  *
   471       H         68.47700000  *  153.68100000  * -59.53700000  *
   472       C         69.79100000  *  153.06900000  * -61.13100000  *
   473       H         70.72100000  *  153.35000000  * -60.64200000  *
   474       H         69.97400000  *  152.16800000  * -61.71600000  *
   475       C         69.35100000  *  154.17900000  * -62.08100000  *
   476       H         68.50200000  *  153.81400000  * -62.66100000  *
   477       H         69.02300000  *  155.05600000  * -61.52200000  *
   478       C         70.49800000  *  154.55900000  * -63.02400000  *
   479       H         71.33900000  *  154.89000000  * -62.40800000  *
   480       H         70.81900000  *  153.66100000  * -63.56600000  *
   481       N         70.11800000  *  155.62600000  * -63.99700000  *
   482       H         69.74700000  *  156.41600000  * -63.48300000  *
   483       H         70.92600000  *  155.93300000  * -64.52500000  *
   484       H         69.41500000  *  155.27800000  * -64.63600000  *
   485       C         70.36000000  *  152.21400000  * -58.25300000  *
   486       O         70.19400000  *  153.07400000  * -57.38700000  *
   487       N         71.53700000  *  151.64500000  * -58.50700000  *
   488       H         71.59600000  *  150.90400000  * -59.18600000  *
   489       C         72.75000000  *  152.07400000  * -57.83600000  *
   490       H         72.53800000  *  152.52600000  * -56.87100000  *
   491       C         73.72700000  *  150.91100000  * -57.67000000  *
   492       H         73.31500000  *  150.22100000  * -56.93700000  *
   493       H         73.77900000  *  150.36900000  * -58.62000000  *
   494       C         75.16700000  *  151.27300000  * -57.28800000  *
   495       H         75.65500000  *  151.80300000  * -58.10000000  *
   496       C         75.18300000  *  152.16500000  * -56.05900000  *
   497       H         74.60800000  *  151.72100000  * -55.25200000  *
   498       H         76.21000000  *  152.29600000  * -55.73500000  *
   499       H         74.78900000  *  153.14000000  * -56.31200000  *
   500       C         75.93300000  *  149.99400000  * -57.01300000  *
   501       H         75.98300000  *  149.42100000  * -57.93300000  *
   502       H         76.94600000  *  150.24200000  * -56.71200000  *
   503       H         75.43500000  *  149.41000000  * -56.23200000  *
   504       C         73.31900000  *  153.11300000  * -58.79500000  *
   505       O         73.76900000  *  152.77900000  * -59.89700000  *
   506       N         73.26700000  *  154.36900000  * -58.37800000  *
   507       H         72.92600000  *  154.57000000  * -57.44900000  *
   508       C         73.73400000  *  155.46600000  * -59.19700000  *
   509       H         73.47500000  *  155.26500000  * -60.23600000  *
   510       C         73.02500000  *  156.74200000  * -58.76000000  *
   511       H         73.45000000  *  157.06300000  * -57.80900000  *
   512       H         73.23600000  *  157.53300000  * -59.48700000  *
   513       C         71.51300000  *  156.60300000  * -58.58700000  *
   514       H         71.27400000  *  155.80900000  * -57.88500000  *
   515       C         70.97400000  *  157.88000000  * -58.01900000  *
   516       H         71.37000000  *  158.74600000  * -58.56000000  *
   517       H         69.88800000  *  157.89100000  * -58.09300000  *
   518       H         71.22100000  *  157.96000000  * -56.96600000  *
   519       C         70.85100000  *  156.29000000  * -59.92300000  *
   520       H         71.28300000  *  155.39700000  * -60.34200000  *
   521       H         69.78900000  *  156.14400000  * -59.75100000  *
   522       H         71.00300000  *  157.12700000  * -60.60700000  *
   523       C         75.24500000  *  155.67800000  * -59.15800000  *
   524       O         75.83900000  *  156.04700000  * -60.17600000  *
   525       N         75.86200000  *  155.44600000  * -57.99600000  *
   526       H         75.29500000  *  155.17900000  * -57.20400000  *
   527       C         77.30800000  *  155.64700000  * -57.82900000  *
   528       H         77.80800000  *  155.40400000  * -58.76600000  *
   529       C         77.60000000  *  157.11700000  * -57.51900000  *
   530       H         76.91700000  *  157.54400000  * -56.80300000  *
   531       H         78.58200000  *  157.17000000  * -57.04800000  *
   532       C         77.65600000  *  157.97500000  * -58.75600000  *
   533       O         78.67800000  *  157.91700000  * -59.48300000  *
   534       O         76.67400000  *  158.70400000  * -59.00000000  *
   535       C         77.97900000  *  154.81700000  * -56.73400000  *
   536       O         77.37100000  *  154.52100000  * -55.70400000  *
   537       N         79.24700000  *  154.47700000  * -56.96600000  *
   538       H         79.69800000  *  154.82400000  * -57.79800000  *
   539       C         80.06100000  *  153.73800000  * -56.00300000  *
   540       H         79.55400000  *  153.69900000  * -55.05200000  *
   541       C         80.36600000  *  152.29800000  * -56.50400000  *
   542       H         79.42700000  *  151.75200000  * -56.56200000  *
   543       C         80.98100000  *  152.34300000  * -57.88400000  *
   544       H         82.06600000  *  152.43300000  * -57.82100000  *
   545       H         80.74600000  *  151.41400000  * -58.37900000  *
   546       H         80.59600000  *  153.14500000  * -58.51000000  *
   547       C         81.29900000  *  151.58800000  * -55.53900000  *
   548       H         80.81100000  *  151.54900000  * -54.57200000  *
   549       H         81.47300000  *  150.57200000  * -55.87800000  *
   550       H         82.25900000  *  152.09200000  * -55.44900000  *
   551       C         81.36500000  *  154.53600000  * -55.81000000  *
   552       O         82.27000000  *  154.48900000  * -56.64700000  *
   553       N         81.45200000  *  155.28200000  * -54.71000000  *
   554       H         80.67600000  *  155.30400000  * -54.06400000  *
   555       C         82.62100000  *  156.11100000  * -54.44300000  *
   556       H         83.20500000  *  156.21800000  * -55.35800000  *
   557       H         82.32200000  *  157.12800000  * -54.14500000  *
   558       H         83.29700000  *  155.73900000  * -53.65600000  *
   559       H         84.58000000  *  155.17100000  * -47.07300000  *
   560       C         84.22500000  *  154.98400000  * -48.09100000  *
   561       O         84.63900000  *  155.65900000  * -49.04200000  *
   562       N         83.35800000  *  153.99100000  * -48.22200000  *
   563       H         83.13600000  *  153.42800000  * -47.41700000  *
   564       C         82.77600000  *  153.65100000  * -49.50600000  *
   565       H         83.37000000  *  154.04700000  * -50.31700000  *
   566       C         82.71900000  *  152.14000000  * -49.66000000  *
   567       H         83.74000000  *  151.87500000  * -49.95700000  *
   568       H         82.64400000  *  151.54600000  * -48.78400000  *
   569       C         81.82600000  *  151.61900000  * -50.77900000  *
   570       H         80.79100000  *  151.88400000  * -50.58700000  *
   571       C         82.25800000  *  152.23100000  * -52.09200000  *
   572       H         83.31100000  *  152.49100000  * -52.08900000  *
   573       H         82.09300000  *  151.51300000  * -52.88400000  *
   574       H         81.65400000  *  153.10900000  * -52.31200000  *
   575       C         81.89900000  *  150.09400000  * -50.82200000  *
   576       H         81.91300000  *  149.66400000  * -49.82700000  *
   577       H         81.05200000  *  149.70600000  * -51.39100000  *
   578       H         82.82500000  *  149.80300000  * -51.32100000  *
   579       C         81.36700000  *  154.23200000  * -49.54800000  *
   580       O         80.51800000  *  153.85700000  * -48.74500000  *
   581       N         81.13100000  *  155.16100000  * -50.46700000  *
   582       H         81.84500000  *  155.34800000  * -51.16200000  *
   583       C         79.82200000  *  155.78100000  * -50.60800000  *
   584       H         79.27400000  *  155.67000000  * -49.68700000  *
   585       C         79.96700000  *  157.27800000  * -50.86800000  *
   586       H         80.42300000  *  157.50400000  * -51.79700000  *
   587       H         78.95400000  *  157.66400000  * -50.98900000  *
   588       C         80.57600000  *  158.04300000  * -49.72300000  *
   589       C         79.79300000  *  158.48000000  * -48.65600000  *
   590       H         78.73500000  *  158.25400000  * -48.66900000  *
   591       C         80.35600000  *  159.18600000  * -47.59400000  *
   592       H         79.75300000  *  159.56200000  * -46.79700000  *
   593       C         81.71600000  *  159.45200000  * -47.58700000  *
   594       O         82.27600000  *  160.12500000  * -46.52100000  *
   595       H         83.20600000  *  160.30800000  * -46.74500000  *
   596       C         82.51400000  *  159.02600000  * -48.63700000  *
   597       H         83.58200000  *  159.23300000  * -48.65000000  *
   598       C         81.94100000  *  158.32800000  * -49.69800000  *
   599       H         82.57400000  *  157.98100000  * -50.50200000  *
   600       C         79.04800000  *  155.15800000  * -51.76500000  *
   601       O         79.54400000  *  155.08000000  * -52.88800000  *
   602       N         77.86200000  *  154.62400000  * -51.49500000  *
   603       H         77.53500000  *  154.64900000  * -50.53500000  *
   604       C         76.98300000  *  154.05400000  * -52.51300000  *
   605       H         77.50800000  *  154.00200000  * -53.46000000  *
   606       C         76.55300000  *  152.62100000  * -52.15300000  *
   607       H         75.86600000  *  152.66400000  * -51.31700000  *
   608       H         76.00800000  *  152.21400000  * -53.00600000  *
   609       C         77.69000000  *  151.65300000  * -51.78700000  *
   610       H         78.20300000  *  152.00600000  * -50.89200000  *
   611       C         77.12100000  *  150.26400000  * -51.50100000  *
   612       H         76.62700000  *  149.86900000  * -52.38900000  *
   613       H         77.92600000  *  149.58900000  * -51.20900000  *
   614       H         76.40400000  *  150.32100000  * -50.68300000  *
   615       C         78.69600000  *  151.52700000  * -52.92400000  *
   616       H         79.21500000  *  152.47200000  * -53.05800000  *
   617       H         79.43200000  *  150.76600000  * -52.67500000  *
   618       H         78.18400000  *  151.25900000  * -53.84800000  *
   619       C         75.78700000  *  154.98500000  * -52.67300000  *
   620       O         75.10600000  *  155.26600000  * -51.68300000  *
   621       N         75.54700000  *  155.50800000  * -53.87800000  *
   622       H         76.14500000  *  155.25500000  * -54.66000000  *
   623       C         74.40900000  *  156.37500000  * -54.09400000  *
   624       H         73.97600000  *  156.70200000  * -53.15000000  *
   625       C         74.83400000  *  157.63700000  * -54.81800000  *
   626       H         75.25500000  *  157.34500000  * -55.76600000  *
   627       C         73.61400000  *  158.52200000  * -55.10900000  *
   628       H         73.11700000  *  158.76900000  * -54.17500000  *
   629       H         73.94100000  *  159.43100000  * -55.61500000  *
   630       H         72.91600000  *  158.00900000  * -55.76200000  *
   631       C         75.84000000  *  158.38200000  * -53.94900000  *
   632       H         75.28100000  *  158.78400000  * -53.13000000  *
   633       H         76.65600000  *  157.75800000  * -53.60500000  *
   634       H         76.26100000  *  159.20400000  * -54.52500000  *
   635       C         73.31400000  *  155.64400000  * -54.85300000  *
   636       O         73.49500000  *  155.22100000  * -55.99400000  *
   637       N         72.20900000  *  155.38700000  * -54.15900000  *
   638       H         72.14200000  *  155.74500000  * -53.21000000  *
   639       C         71.03100000  *  154.70500000  * -54.68700000  *
   640       H         71.27800000  *  154.23500000  * -55.63500000  *
   641       C         70.58600000  *  153.61600000  * -53.70500000  *
   642       H         70.45600000  *  154.06300000  * -52.72000000  *
   643       H         69.61000000  *  153.24900000  * -54.01800000  *
   644       C         71.52300000  *  152.42900000  * -53.58400000  *
   645       C         71.39500000  *  151.33900000  * -54.46700000  *
   646       H         70.65800000  *  151.36200000  * -55.25700000  *
   647       C         72.21600000  *  150.20700000  * -54.31900000  *
   648       H         72.10700000  *  149.36700000  * -54.99200000  *
   649       C         73.17500000  *  150.16400000  * -53.29300000  *
   650       H         73.80800000  *  149.29300000  * -53.17900000  *
   651       C         73.30900000  *  151.25300000  * -52.41400000  *
   652       H         74.03900000  *  151.21200000  * -51.62000000  *
   653       C         72.49000000  *  152.38700000  * -52.56200000  *
   654       H         72.59500000  *  153.22100000  * -51.88000000  *
   655       C         69.88900000  *  155.69900000  * -54.92400000  *
   656       O         69.78000000  *  156.70900000  * -54.22700000  *
   657       N         69.01200000  *  155.41700000  * -55.89000000  *
   658       H         69.15300000  *  154.57500000  * -56.43900000  *
   659       C         67.72800000  *  156.12700000  * -55.98900000  *
   660       H         67.94800000  *  157.17300000  * -56.20500000  *
   661       C         66.88000000  *  155.59000000  * -57.15800000  *
   662       H         66.01200000  *  156.24000000  * -57.26500000  *
   663       H         67.46200000  *  155.64100000  * -58.07900000  *
   664       C         66.40400000  *  154.14700000  * -56.94600000  *
   665       H         67.28000000  *  153.49900000  * -56.91200000  *
   666       H         65.89600000  *  154.07900000  * -55.98800000  *
   667       C         65.42400000  *  153.64200000  * -58.01100000  *
   668       O         64.53900000  *  154.39300000  * -58.48100000  *
   669       O         65.49300000  *  152.44000000  * -58.34500000  *
   670       C         66.95500000  *  156.08300000  * -54.65000000  *
   671       O         66.99800000  *  155.09100000  * -53.91400000  *
   672       N         66.24600000  *  157.16200000  * -54.31800000  *
   673       H         66.21700000  *  157.94800000  * -54.95100000  *
   674       C         65.37100000  *  157.20200000  * -53.14600000  *
   675       H         65.83600000  *  156.64100000  * -52.33300000  *
   676       C         65.22800000  *  158.65400000  * -52.68300000  *
   677       H         66.22300000  *  159.05400000  * -52.48900000  *
   678       H         64.77700000  *  159.24500000  * -53.48100000  *
   679       C         64.40400000  *  158.80600000  * -51.42100000  *
   680       C         63.06300000  *  159.23100000  * -51.48400000  *
   681       H         62.61000000  *  159.46900000  * -52.43700000  *
   682       C         62.30400000  *  159.33800000  * -50.30500000  *
   683       H         61.27400000  *  159.66400000  * -50.35500000  *
   684       C         62.88000000  *  159.01800000  * -49.06500000  *
   685       H         62.29400000  *  159.08900000  * -48.15800000  *
   686       C         64.22300000  *  158.60600000  * -49.00300000  *
   687       H         64.67400000  *  158.36900000  * -48.05300000  *
   688       C         64.98300000  *  158.49600000  * -50.17900000  *
   689       H         66.01100000  *  158.16600000  * -50.12700000  *
   690       C         64.00200000  *  156.56800000  * -53.44000000  *
   691       O         63.40300000  *  156.83500000  * -54.48600000  *
   692       N         63.48300000  *  155.77500000  * -52.49900000  *
   693       H         64.03700000  *  155.59400000  * -51.66800000  *
   694       C         62.10200000  *  155.27400000  * -52.49200000  *
   695       H         61.52300000  *  155.77200000  * -53.27200000  *
   696       C         62.06200000  *  153.76000000  * -52.74300000  *
   697       H         62.78100000  *  153.27500000  * -52.08400000  *
   698       H         61.06800000  *  153.40900000  * -52.46200000  *
   699       C         62.32500000  *  153.36900000  * -54.20900000  *
   700       H         62.09300000  *  154.20700000  * -54.86500000  *
   701       C         63.78000000  *  152.95400000  * -54.41100000  *
   702       H         64.01800000  *  152.11600000  * -53.76100000  *
   703       H         63.94600000  *  152.67500000  * -55.45000000  *
   704       H         64.43800000  *  153.78600000  * -54.16300000  *
   705       C         61.44300000  *  152.19000000  * -54.62700000  *
   706       H         60.39300000  *  152.44000000  * -54.47100000  *
   707       H         61.58900000  *  151.97600000  * -55.68400000  *
   708       H         61.69000000  *  151.30600000  * -54.04100000  *
   709       C         61.44200000  *  155.60800000  * -51.15400000  *
   710       O         62.06400000  *  155.52300000  * -50.10200000  *
   711       N         60.18400000  *  156.03200000  * -51.18400000  *
   712       H         59.72600000  *  156.11100000  * -52.08300000  *
   713       C         59.56500000  *  156.73300000  * -50.05700000  *
   714       H         60.28500000  *  157.46300000  * -49.68400000  *
   715       C         58.35800000  *  157.52000000  * -50.57800000  *
   716       H         57.56700000  *  156.81900000  * -50.84400000  *
   717       H         58.00600000  *  158.15900000  * -49.77100000  *
   718       C         58.64200000  *  158.38800000  * -51.78500000  *
   719       N         58.79000000  *  157.92900000  * -53.09900000  *
   720       C         59.04200000  *  159.01900000  * -53.84400000  *
   721       H         59.20800000  *  159.01600000  * -54.91600000  *
   722       N         59.05800000  *  160.11900000  * -53.07200000  *
   723       H         59.22000000  *  161.06500000  * -53.40700000  *
   724       C         58.80700000  *  159.74200000  * -51.77100000  *
   725       H         58.75000000  *  160.38800000  * -50.90300000  *
   726       C         59.20200000  *  155.85300000  * -48.84500000  *
   727       O         58.96400000  *  156.39700000  * -47.76700000  *
   728       N         59.17000000  *  154.52000000  * -48.98600000  *
   729       H         59.38100000  *  154.12800000  * -49.89500000  *
   730       C         58.85500000  *  153.57900000  * -47.90000000  *
   731       H         59.28300000  *  153.97300000  * -46.97900000  *
   732       C         57.32300000  *  153.52100000  * -47.71600000  *
   733       H         56.96700000  *  154.53100000  * -47.50800000  *
   734       H         56.85100000  *  153.18400000  * -48.64000000  *
   735       C         56.88200000  *  152.60600000  * -46.56200000  *
   736       H         56.74900000  *  151.59500000  * -46.94100000  *
   737       H         57.65800000  *  152.59300000  * -45.79700000  *
   738       C         55.59600000  *  153.06700000  * -45.88700000  *
   739       O         55.60900000  *  153.67800000  * -44.83100000  *
   740       N         54.44000000  *  152.79500000  * -46.45300000  *
   741       H         53.61500000  *  153.12000000  * -45.97200000  *
   742       H         54.40100000  *  152.31900000  * -47.33700000  *
   743       C         59.48500000  *  152.18600000  * -48.12200000  *
   744       O         59.68500000  *  151.76200000  * -49.25900000  *
   745       N         59.78900000  *  151.46800000  * -47.03300000  *
   746       H         59.58100000  *  151.86200000  * -46.13100000  *
   747       C         60.21400000  *  150.06000000  * -47.05500000  *
   748       H         60.52500000  *  149.81800000  * -48.06700000  *
   749       C         61.45000000  *  149.83400000  * -46.16000000  *
   750       H         61.85400000  *  148.85000000  * -46.40300000  *
   751       H         62.21000000  *  150.56900000  * -46.43000000  *
   752       C         61.21400000  *  149.88400000  * -44.64300000  *
   753       O         60.26300000  *  149.23700000  * -44.15600000  *
   754       O         62.01900000  *  150.53100000  * -43.93400000  *
   755       C         59.05000000  *  149.10900000  * -46.71600000  *
   756       O         58.01700000  *  149.52600000  * -46.17400000  *
   757       N         59.19100000  *  147.81900000  * -47.04800000  *
   758       H         60.03800000  *  147.50900000  * -47.52500000  *
   759       C         58.10100000  *  146.88000000  * -46.84100000  *
   760       H         57.21800000  *  147.32500000  * -47.29300000  *
   761       C         58.41200000  *  145.57700000  * -47.59200000  *
   762       H         58.61300000  *  145.80400000  * -48.64400000  *
   763       H         59.28800000  *  145.12100000  * -47.15800000  *
   764       C         57.28700000  *  144.52700000  * -47.51900000  *
   765       H         57.05600000  *  144.28000000  * -46.48700000  *
   766       C         56.00700000  *  145.04400000  * -48.19600000  *
   767       H         56.23500000  *  145.37800000  * -49.20200000  *
   768       H         55.26800000  *  144.24500000  * -48.23100000  *
   769       H         55.59500000  *  145.87000000  * -47.62900000  *
   770       C         57.76800000  *  143.24900000  * -48.17500000  *
   771       H         58.61500000  *  142.85400000  * -47.62000000  *
   772       H         56.97300000  *  142.50400000  * -48.17100000  *
   773       H         58.06400000  *  143.44500000  * -49.20700000  *
   774       C         57.76400000  *  146.61300000  * -45.36900000  *
   775       O         56.60900000  *  146.37600000  * -45.03000000  *
   776       N         58.75700000  *  146.67700000  * -44.48800000  *
   777       H         59.64000000  *  147.08600000  * -44.79000000  *
   778       C         58.49100000  *  146.46700000  * -43.07300000  *
   779       H         57.97900000  *  145.55100000  * -42.87200000  *
   780       C         59.78200000  *  146.47800000  * -42.25400000  *
   781       H         60.44800000  *  145.70000000  * -42.62000000  *
   782       H         60.28600000  *  147.44000000  * -42.35600000  *
   783       C         59.49200000  *  146.22900000  * -40.76500000  *
   784       H         58.94200000  *  147.08300000  * -40.37400000  *
   785       H         58.87100000  *  145.33200000  * -40.67600000  *
   786       C         60.74500000  *  146.03800000  * -39.93500000  *
   787       H         61.36100000  *  145.25900000  * -40.37900000  *
   788       H         61.30800000  *  146.97100000  * -39.90700000  *
   789       C         60.37600000  *  145.60700000  * -38.51700000  *
   790       H         59.98500000  *  144.58900000  * -38.53700000  *
   791       H         61.27900000  *  145.61300000  * -37.90300000  *
   792       N         59.34600000  *  146.53100000  * -37.94700000  *
   793       H         58.44600000  *  146.48100000  * -38.44300000  *
   794       H         59.09000000  *  146.27800000  * -37.00400000  *
   795       H         59.61300000  *  147.50600000  * -37.97800000  *
   796       C         57.55800000  *  147.53800000  * -42.51200000  *
   797       O         56.61300000  *  147.23400000  * -41.78300000  *
   798       N         57.83700000  *  148.81000000  * -42.81000000  *
   799       H         58.66600000  *  148.99400000  * -43.38000000  *
   800       C         57.02200000  *  149.93900000  * -42.34700000  *
   801       H         56.92300000  *  149.87300000  * -41.26200000  *
   802       C         57.73400000  *  151.25800000  * -42.68800000  *
   803       H         58.76600000  *  151.19900000  * -42.33900000  *
   804       H         57.74300000  *  151.39900000  * -43.76900000  *
   805       C         57.06000000  *  152.46000000  * -42.01000000  *
   806       H         56.04500000  *  152.57200000  * -42.39300000  *
   807       H         57.00600000  *  152.27900000  * -40.93500000  *
   808       C         57.84300000  *  153.75800000  * -42.25500000  *
   809       H         58.84100000  *  153.66100000  * -41.82200000  *
   810       H         57.93500000  *  153.93400000  * -43.32800000  *
   811       C         57.10900000  *  154.93400000  * -41.59800000  *
   812       H         56.11700000  *  155.02300000  * -42.05000000  *
   813       H         56.97200000  *  154.71000000  * -40.53500000  *
   814       N         57.85400000  *  156.21000000  * -41.74900000  *
   815       H         57.97200000  *  156.45500000  * -42.72100000  *
   816       H         57.36000000  *  156.97000000  * -41.30300000  *
   817       H         58.76800000  *  156.15400000  * -41.32300000  *
   818       C         55.61100000  *  149.84600000  * -42.92800000  *
   819       O         54.63700000  *  150.09300000  * -42.22300000  *
   820       N         55.49500000  *  149.42600000  * -44.18900000  *
   821       H         56.35000000  *  149.26300000  * -44.71300000  *
   822       C         54.20500000  *  149.26000000  * -44.85200000  *
   823       H         53.62600000  *  150.17500000  * -44.72500000  *
   824       C         54.41000000  *  148.98800000  * -46.34000000  *
   825       H         54.98900000  *  149.80200000  * -46.77700000  *
   826       H         55.00200000  *  148.07700000  * -46.45200000  *
   827       C         53.12600000  *  148.85300000  * -47.10800000  *
   828       C         52.23100000  *  149.92200000  * -47.18600000  *
   829       H         52.46300000  *  150.85600000  * -46.69900000  *
   830       C         51.01500000  *  149.79500000  * -47.88400000  *
   831       H         50.32500000  *  150.62800000  * -47.91800000  *
   832       C         50.69700000  *  148.60300000  * -48.50200000  *
   833       H         49.75200000  *  148.50200000  * -49.02000000  *
   834       C         51.58700000  *  147.52100000  * -48.43200000  *
   835       H         51.33500000  *  146.58300000  * -48.91200000  *
   836       C         52.79500000  *  147.65400000  * -47.73300000  *
   837       H         53.46700000  *  146.81000000  * -47.67200000  *
   838       C         53.37400000  *  148.12200000  * -44.22700000  *
   839       O         52.16900000  *  148.28300000  * -44.00900000  *
   840       N         54.01600000  *  146.98100000  * -43.96600000  *
   841       H         55.00900000  *  146.90600000  * -44.17900000  *
   842       C         53.33800000  *  145.83600000  * -43.34100000  *
   843       H         52.47600000  *  145.52800000  * -43.93400000  *
   844       C         54.29200000  *  144.65000000  * -43.17000000  *
   845       H         55.15800000  *  145.02700000  * -42.63600000  *
   846       H         53.80700000  *  143.89200000  * -42.54700000  *
   847       C         54.73100000  *  144.00400000  * -44.46100000  *
   848       H         53.84700000  *  143.61400000  * -44.95900000  *
   849       H         55.19200000  *  144.69400000  * -45.15000000  *
   850       S         55.79700000  *  142.58100000  * -44.15400000  *
   851       C         57.05400000  *  143.29200000  * -43.18800000  *
   852       H         56.67800000  *  143.65800000  * -42.23500000  *
   853       H         57.80700000  *  142.53400000  * -42.98200000  *
   854       H         57.44300000  *  144.07900000  * -43.80900000  *
   855       C         52.84400000  *  146.26000000  * -41.95900000  *
   856       O         51.68200000  *  146.03200000  * -41.61400000  *
   857       N         53.72600000  *  146.88400000  * -41.17900000  *
   858       H         54.70100000  *  146.95700000  * -41.45300000  *
   859       C         53.34300000  *  147.35100000  * -39.84600000  *
   860       H         53.03400000  *  146.49700000  * -39.23800000  *
   861       C         54.50500000  *  148.07700000  * -39.15700000  *
   862       H         54.94100000  *  148.81500000  * -39.83000000  *
   863       H         54.12400000  *  148.60600000  * -38.28400000  *
   864       C         55.58400000  *  147.11500000  * -38.68500000  *
   865       O         55.26200000  *  145.90900000  * -38.57600000  *
   866       O         56.73300000  *  147.55200000  * -38.41700000  *
   867       C         52.15000000  *  148.27900000  * -39.96300000  *
   868       O         51.20300000  *  148.18000000  * -39.18700000  *
   869       N         52.18300000  *  149.16200000  * -40.95500000  *
   870       H         53.01600000  *  149.23700000  * -41.51800000  *
   871       C         51.08600000  *  150.10000000  * -41.17300000  *
   872       H         50.93100000  *  150.67400000  * -40.25800000  *
   873       C         51.42800000  *  151.06800000  * -42.31500000  *
   874       H         51.45500000  *  150.53900000  * -43.26600000  *
   875       H         50.66000000  *  151.83800000  * -42.36800000  *
   876       H         52.39300000  *  151.53600000  * -42.12800000  *
   877       C         49.78900000  *  149.37000000  * -41.49900000  *
   878       O         48.71100000  *  149.83600000  * -41.15600000  *
   879       N         49.90500000  *  148.22900000  * -42.16400000  *
   880       H         50.83800000  *  147.88500000  * -42.38200000  *
   881       C         48.74000000  *  147.45400000  * -42.57500000  *
   882       H         47.85700000  *  148.08600000  * -42.62800000  *
   883       H         48.90600000  *  147.02300000  * -43.58600000  *
   884       H         48.52600000  *  146.61900000  * -41.88800000  *
   885       H         72.54500000  *  137.05800000  * -55.15200000  *
   886       C         72.38600000  *  137.90500000  * -54.47400000  *
   887       O         73.28300000  *  138.71900000  * -54.28600000  *
   888       N         71.20100000  *  138.01500000  * -53.89800000  *
   889       H         70.47300000  *  137.31400000  * -54.05700000  *
   890       C         70.96800000  *  139.10000000  * -52.94900000  *
   891       H         71.50000000  *  140.00600000  * -53.22900000  *
   892       C         69.47700000  *  139.40500000  * -52.82500000  *
   893       H         69.09300000  *  139.71900000  * -53.79200000  *
   894       H         68.93000000  *  138.50600000  * -52.53300000  *
   895       C         69.17800000  *  140.45400000  * -51.81200000  *
   896       N         69.23000000  *  140.42300000  * -50.45900000  *
   897       C         68.94700000  *  141.69100000  * -50.01400000  *
   898       H         68.96900000  *  142.01200000  * -48.98400000  *
   899       N         68.72400000  *  142.47200000  * -51.05500000  *
   900       H         68.47200000  *  143.44500000  * -51.00700000  *
   901       C         68.85400000  *  141.75000000  * -52.15500000  *
   902       H         68.77100000  *  142.12600000  * -53.16500000  *
   903       C         71.52100000  *  138.65700000  * -51.58300000  *
   904       O         72.28000000  *  139.38000000  * -50.94700000  *
   905       N         71.11400000  *  137.47100000  * -51.14500000  *
   906       H         70.37100000  *  137.01600000  * -51.66500000  *
   907       C         71.55500000  *  136.88000000  * -49.87700000  *
   908       H         71.18200000  *  135.84900000  * -49.87900000  *
   909       C         73.07600000  *  136.85300000  * -49.83700000  *
   910       H         73.53100000  *  137.83300000  * -49.86900000  *
   911       H         73.36600000  *  136.47900000  * -48.85100000  *
   912       C         73.64700000  *  135.85900000  * -50.81700000  *
   913       H         73.29800000  *  134.87100000  * -50.67200000  *
   914       H         73.21600000  *  136.10500000  * -51.78700000  *
   915       C         75.11700000  *  136.08400000  * -50.99900000  *
   916       H         75.61200000  *  135.95400000  * -50.03300000  *
   917       H         75.49500000  *  135.33200000  * -51.69500000  *
   918       N         75.35800000  *  137.42700000  * -51.50600000  *
   919       H         74.62100000  *  138.12700000  * -51.38200000  *
   920       C         76.54800000  *  137.85900000  * -51.89000000  *
   921       N         77.59300000  *  137.04400000  * -51.81500000  *
   922       H         77.44700000  *  136.21200000  * -51.26800000  *
   923       H         78.49900000  *  137.44300000  * -51.92100000  *
   924       N         76.69000000  *  139.09300000  * -52.35600000  *
   925       H         75.86000000  *  139.69200000  * -52.33800000  *
   926       H         77.56200000  *  139.47800000  * -52.67100000  *
   927       C         71.03700000  *  137.42400000  * -48.54200000  *
   928       O         71.18700000  *  136.76800000  * -47.50900000  *
   929       N         70.43700000  *  138.60400000  * -48.51600000  *
   930       H         70.32800000  *  139.16900000  * -49.34700000  *
   931       C         69.93700000  *  139.07600000  * -47.23100000  *
   932       H         69.76500000  *  138.24900000  * -46.54100000  *
   933       C         70.93500000  *  140.04200000  * -46.56200000  *
   934       H         71.90900000  *  139.56600000  * -46.50900000  *
   935       H         71.04400000  *  140.94300000  * -47.17900000  *
   936       C         70.51300000  *  140.42800000  * -45.14700000  *
   937       O         70.17200000  *  139.51500000  * -44.35500000  *
   938       O         70.51000000  *  141.64400000  * -44.82500000  *
   939       C         68.58700000  *  139.73400000  * -47.37800000  *
   940       O         68.35000000  *  140.81000000  * -46.83500000  *
   941       N         67.68700000  *  139.08300000  * -48.11000000  *
   942       H         67.94300000  *  138.20800000  * -48.54500000  *
   943       C         66.35900000  *  139.64900000  * -48.29900000  *
   944       H         66.47700000  *  140.66700000  * -48.65900000  *
   945       C         65.54600000  *  138.81300000  * -49.28800000  *
   946       H         65.58300000  *  137.78400000  * -48.94500000  *
   947       H         64.50600000  *  139.14000000  * -49.25500000  *
   948       C         66.02700000  *  138.85500000  * -50.73600000  *
   949       H         67.06400000  *  138.52800000  * -50.78200000  *
   950       C         65.17300000  *  137.91700000  * -51.58300000  *
   951       H         64.15900000  *  138.30500000  * -51.68800000  *
   952       H         65.63400000  *  137.80700000  * -52.55000000  *
   953       H         65.13400000  *  136.93500000  * -51.11000000  *
   954       C         65.92100000  *  140.27700000  * -51.26400000  *
   955       H         66.42000000  *  140.99600000  * -50.63300000  *
   956       H         66.44200000  *  140.27500000  * -52.20900000  *
   957       H         64.88200000  *  140.56100000  * -51.39700000  *
   958       C         65.59400000  *  139.73400000  * -46.98200000  *
   959       O         65.58600000  *  138.79200000  * -46.16600000  *
   960       N         64.96100000  *  140.85800000  * -46.73900000  *
   961       H         64.97000000  *  141.59000000  * -47.43600000  *
   962       C         64.17100000  *  141.06400000  * -45.54000000  *
   963       H         63.55900000  *  140.17200000  * -45.40300000  *
   964       C         65.04700000  *  141.22400000  * -44.27700000  *
   965       H         64.40900000  *  141.27200000  * -43.39400000  *
   966       H         65.65400000  *  140.32500000  * -44.16700000  *
   967       C         65.97100000  *  142.44800000  * -44.26500000  *
   968       H         66.37400000  *  142.61100000  * -45.26200000  *
   969       H         65.40800000  *  143.32800000  * -43.95800000  *
   970       C         67.13600000  *  142.19300000  * -43.29900000  *
   971       H         66.74600000  *  141.91200000  * -42.31900000  *
   972       H         67.72100000  *  141.35900000  * -43.69500000  *
   973       C         68.03400000  *  143.42600000  * -43.14900000  *
   974       H         68.10800000  *  143.93300000  * -44.11500000  *
   975       H         67.56000000  *  144.12000000  * -42.44500000  *
   976       N         69.38800000  *  143.03400000  * -42.67300000  *
   977       H         69.86300000  *  142.45100000  * -43.37600000  *
   978       H         69.95800000  *  143.84900000  * -42.48100000  *
   979       H         69.32500000  *  142.50100000  * -41.81500000  *
   980       C         63.26900000  *  142.23200000  * -45.83100000  *
   981       O         63.63100000  *  143.07700000  * -46.64900000  *
   982       N         62.11200000  *  142.30300000  * -45.18600000  *
   983       C         61.62600000  *  141.34600000  * -44.17100000  *
   984       H         62.10000000  *  141.53200000  * -43.20900000  *
   985       H         61.74500000  *  140.31100000  * -44.47600000  *
   986       C         60.16400000  *  141.66900000  * -44.09500000  *
   987       H         59.73700000  *  141.34900000  * -43.14300000  *
   988       H         59.63700000  *  141.20600000  * -44.93200000  *
   989       C         60.16000000  *  143.18900000  * -44.24800000  *
   990       H         60.51600000  *  143.64900000  * -43.32100000  *
   991       H         59.20200000  *  143.56500000  * -44.57400000  *
   992       C         61.14500000  *  143.38000000  * -45.40300000  *
   993       H         60.63400000  *  143.20500000  * -46.34500000  *
   994       C         61.77100000  *  144.77100000  * -45.44800000  *
   995       O         61.39200000  *  145.58400000  * -46.27300000  *
   996       N         62.72000000  *  145.09300000  * -44.55000000  *
   997       H         62.96100000  *  144.40600000  * -43.85100000  *
   998       C         63.42800000  *  146.39500000  * -44.52300000  *
   999       H         62.69200000  *  147.19600000  * -44.42700000  *
  1000       C         64.38700000  *  146.46600000  * -43.32000000  *
  1001       H         65.08000000  *  145.62500000  * -43.36800000  *
  1002       H         64.97400000  *  147.38300000  * -43.40200000  *
  1003       C         63.69500000  *  146.48400000  * -41.95100000  *
  1004       H         63.00300000  *  147.32700000  * -41.91900000  *
  1005       H         63.13200000  *  145.56300000  * -41.81400000  *
  1006       C         64.70300000  *  146.60500000  * -40.80600000  *
  1007       O         65.71900000  *  145.92400000  * -40.76100000  *
  1008       N         64.46400000  *  147.45600000  * -39.83200000  *
  1009       H         65.13800000  *  147.52500000  * -39.08300000  *
  1010       H         63.65600000  *  148.05800000  * -39.85300000  *
  1011       C         64.25900000  *  146.69000000  * -45.78900000  *
  1012       O         64.46300000  *  147.84700000  * -46.14800000  *
  1013       N         64.74100000  *  145.64300000  * -46.46400000  *
  1014       H         64.45000000  *  144.72300000  * -46.16600000  *
  1015       C         65.52600000  *  145.70700000  * -47.69700000  *
  1016       H         66.09300000  *  146.64000000  * -47.71800000  *
  1017       C         66.53300000  *  144.52700000  * -47.71800000  *
  1018       H         66.01300000  *  143.59600000  * -47.50800000  *
  1019       H         66.95200000  *  144.43600000  * -48.71700000  *
  1020       C         67.71700000  *  144.66500000  * -46.77000000  *
  1021       O         67.96700000  *  145.70200000  * -46.17800000  *
  1022       N         68.50200000  *  143.62700000  * -46.58800000  *
  1023       H         69.33900000  *  143.74400000  * -46.04100000  *
  1024       H         68.27500000  *  142.69500000  * -46.92100000  *
  1025       C         64.63500000  *  145.72400000  * -48.95800000  *
  1026       O         65.16900000  *  145.65500000  * -50.06300000  *
  1027       N         63.30000000  *  145.80300000  * -48.83400000  *
  1028       H         62.89500000  *  145.87300000  * -47.90900000  *
  1029       C         62.40600000  *  145.84500000  * -49.97900000  *
  1030       H         62.94700000  *  145.74800000  * -50.91900000  *
  1031       C         61.36900000  *  144.72100000  * -49.88900000  *
  1032       H         60.76900000  *  144.86100000  * -48.99200000  *
  1033       H         60.74400000  *  144.79800000  * -50.77200000  *
  1034       C         62.03600000  *  143.32400000  * -49.85900000  *
  1035       H         62.67100000  *  143.24000000  * -48.98800000  *
  1036       C         61.00200000  *  142.26000000  * -49.77100000  *
  1037       H         60.24600000  *  142.42800000  * -50.53400000  *
  1038       H         61.44700000  *  141.27100000  * -49.89000000  *
  1039       H         60.52000000  *  142.31900000  * -48.79800000  *
  1040       C         62.89500000  *  143.12600000  * -51.08400000  *
  1041       H         63.82900000  *  143.66800000  * -50.95600000  *
  1042       H         63.12900000  *  142.06900000  * -51.20900000  *
  1043       H         62.39300000  *  143.49200000  * -51.96600000  *
  1044       C         61.76300000  *  147.21800000  * -49.95200000  *
  1045       O         61.15000000  *  147.60200000  * -48.96600000  *
  1046       N         61.88800000  *  147.98200000  * -51.03000000  *
  1047       H         62.38200000  *  147.61200000  * -51.83600000  *
  1048       C         61.44600000  *  149.37500000  * -51.05800000  *
  1049       H         61.05600000  *  149.67100000  * -50.08700000  *
  1050       C         62.63000000  *  150.28500000  * -51.37000000  *
  1051       H         62.96800000  *  150.08800000  * -52.38800000  *
  1052       H         62.27000000  *  151.30900000  * -51.30900000  *
  1053       C         63.81800000  *  150.11900000  * -50.41300000  *
  1054       H         64.24200000  *  149.12200000  * -50.51600000  *
  1055       C         64.86700000  *  151.14300000  * -50.79800000  *
  1056       H         64.49600000  *  152.13800000  * -50.56100000  *
  1057       H         65.78100000  *  150.93800000  * -50.24600000  *
  1058       H         65.07800000  *  151.10300000  * -51.85900000  *
  1059       C         63.46000000  *  150.35300000  * -48.94900000  *
  1060       H         62.84500000  *  149.53500000  * -48.59000000  *
  1061       H         64.36500000  *  150.38300000  * -48.34400000  *
  1062       H         62.91600000  *  151.29000000  * -48.84200000  *
  1063       C         60.32600000  *  149.56600000  * -52.06400000  *
  1064       O         60.42300000  *  149.10500000  * -53.18900000  *
  1065       N         59.26800000  *  150.25600000  * -51.67700000  *
  1066       H         59.36500000  *  150.76300000  * -50.80000000  *
  1067       C         58.08300000  *  150.44700000  * -52.50800000  *
  1068       H         58.17300000  *  149.92400000  * -53.45700000  *
  1069       C         56.81900000  *  149.90600000  * -51.78600000  *
  1070       H         55.94300000  *  150.08700000  * -52.41500000  *
  1071       C         56.95000000  *  148.40400000  * -51.54300000  *
  1072       H         57.75300000  *  148.18300000  * -50.83300000  *
  1073       H         56.01300000  *  148.00400000  * -51.15200000  *
  1074       H         57.15800000  *  147.91500000  * -52.48900000  *
  1075       C         56.64700000  *  150.60600000  * -50.43300000  *
  1076       H         57.48200000  *  150.38000000  * -49.77500000  *
  1077       H         56.60500000  *  151.68300000  * -50.57600000  *
  1078       C         55.37000000  *  150.22200000  * -49.68600000  *
  1079       H         55.48900000  *  149.24800000  * -49.22200000  *
  1080       H         55.17000000  *  150.96500000  * -48.91000000  *
  1081       H         54.52900000  *  150.16800000  * -50.38500000  *
  1082       C         57.87200000  *  151.93000000  * -52.81700000  *
  1083       O         58.38200000  *  152.79400000  * -52.10000000  *
  1084       N         57.14900000  *  152.22000000  * -53.89700000  *
  1085       H         56.70500000  *  151.48200000  * -54.43300000  *
  1086       C         56.84100000  *  153.60200000  * -54.22700000  *
  1087       H         57.16800000  *  154.27800000  * -53.43100000  *
  1088       C         57.50400000  *  154.05300000  * -55.54100000  *
  1089       H         57.21800000  *  155.07000000  * -55.80500000  *
  1090       H         58.58200000  *  154.04400000  * -55.38800000  *
  1091       C         57.19300000  *  153.14600000  * -56.70100000  *
  1092       O         56.13500000  *  152.53500000  * -56.76400000  *
  1093       N         58.11500000  *  153.07200000  * -57.64100000  *
  1094       H         57.83300000  *  152.61700000  * -58.48600000  *
  1095       H         58.88600000  *  153.71500000  * -57.62100000  *
  1096       C         55.33100000  *  153.75800000  * -54.32100000  *
  1097       O         54.57600000  *  152.79900000  * -54.11400000  *
  1098       N         54.88500000  *  154.97100000  * -54.62100000  *
  1099       H         55.52100000  *  155.73600000  * -54.79200000  *
  1100       C         53.46400000  *  155.24700000  * -54.72300000  *
  1101       H         52.92700000  *  154.82600000  * -53.87200000  *
  1102       C         53.20900000  *  156.78000000  * -54.75500000  *
  1103       H         52.16900000  *  156.98000000  * -55.02600000  *
  1104       C         53.47800000  *  157.39700000  * -53.41000000  *
  1105       H         54.52100000  *  157.25500000  * -53.13000000  *
[...]
 1005  H   0.83006
 1006  C   1.06513   0.79701   0.73571   0.79731
 1007  O   1.87754   1.41012   1.57646   1.83008
 1008  N   1.52693   1.34947   1.41493   1.30842
 1009  H   0.65699
 1010  H   0.66369
 1011  C   1.08312   0.75588   0.78119   0.81463
 1012  O   1.88457   1.66360   1.31072   1.73368
 1013  N   1.55099   1.50439   1.20223   1.30384
 1014  H   0.66575
 1015  C   1.07256   0.94534   1.09217   0.82328
 1016  H   0.80533
 1017  C   1.07014   1.05611   1.09316   1.15527
 1018  H   0.82965
 1019  H   0.79609
 1020  C   1.05885   0.79836   0.76378   0.76855
 1021  O   1.87599   1.77584   1.43115   1.58686
 1022  N   1.53086   1.31982   1.20770   1.56243
 1023  H   0.66777
 1024  H   0.65508
 1025  C   1.08766   0.78440   0.72030   0.85373
 1026  O   1.87908   1.76204   1.60979   1.38332
 1027  N   1.54127   1.12559   1.66584   1.18367
 1028  H   0.65422
 1029  C   1.06991   0.96855   0.98011   0.97406
 1030  H   0.81184
 1031  C   1.06727   1.06419   0.99761   1.17267
 1032  H   0.83722
 1033  H   0.84817
 1034  C   1.04099   1.01188   0.94643   1.06188
 1035  H   0.85571
 1036  C   1.04919   1.12582   1.11842   1.17086
 1037  H   0.84488
 1038  H   0.84902
 1039  H   0.86548
 1040  C   1.05149   1.14090   1.17170   1.09948
 1041  H   0.84597
 1042  H   0.85753
 1043  H   0.84965
 1044  C   1.07648   0.74978   0.84344   0.75532
 1045  O   1.87188   1.53793   1.79733   1.44602
 1046  N   1.54573   1.55639   1.17175   1.24673
 1047  H   0.64548
 1048  C   1.06523   0.99020   0.82517   1.09943
 1049  H   0.81486
 1050  C   1.06488   1.02118   1.10661   1.12621
 1051  H   0.84669
 1052  H   0.83959
 1053  C   1.04810   0.96706   1.07286   0.96812
 1054  H   0.86632
 1055  C   1.05415   1.12256   1.13074   1.16602
 1056  H   0.84570
 1057  H   0.84836
 1058  H   0.86067
 1059  C   1.05443   1.17561   1.17767   1.04747
 1060  H   0.84027
 1061  H   0.85161
 1062  H   0.84736
 1063  C   1.07612   0.79787   0.74318   0.81675
 1064  O   1.86893   1.83091   1.62412   1.34276
 1065  N   1.54243   1.18931   1.47207   1.29603
 1066  H   0.64362
 1067  C   1.07586   0.88871   1.00577   1.04155
 1068  H   0.81013
 1069  C   1.06435   1.01631   0.99314   1.01959
 1070  H   0.85006
 1071  C   1.05460   1.18097   1.03396   1.17663
 1072  H   0.84351
 1073  H   0.84528
 1074  H   0.85318
 1075  C   1.05395   1.06871   1.11961   1.03178
 1076  H   0.84698
 1077  H   0.86143
 1078  C   1.05259   1.08988   1.15806   1.13226
 1079  H   0.84800
 1080  H   0.87714
 1081  H   0.84668
 1082  C   1.08637   0.74165   0.88791   0.74189
 1083  O   1.88669   1.56930   1.57714   1.55731
 1084  N   1.54294   1.50730   1.14373   1.33776
 1085  H   0.64337
 1086  C   1.06230   0.97188   0.88439   1.03714
 1087  H   0.80570
 1088  C   1.07256   1.18091   1.12813   1.02364
 1089  H   0.80951
 1090  H   0.80384
 1091  C   1.06083   0.76181   0.77072   0.82347
 1092  O   1.88008   1.35606   1.56959   1.83568
 1093  N   1.53409   1.29764   1.49479   1.27175
 1094  H   0.67203
 1095  H   0.66422
 1096  C   1.08306   0.88531   0.75954   0.71368
 1097  O   1.88783   1.65397   1.46824   1.58807
 1098  N   1.54010   1.14528   1.19753   1.67222
 1099  H   0.66325
 1100  C   1.08559   0.83705   1.05819   1.08282
 1101  H   0.80376
 1102  C   1.08425   0.99153   0.86678   0.88982
 1103  H   0.84701
 1104  C   1.05378   1.18332   1.18056   1.05446
 1105  H   0.84183
 1106  H   0.82404
 1107  H   0.82931
 1108  O   1.84879   1.59242   1.82299   1.34542
 1109  H   0.64228
 1110  C   1.07328   0.78904   0.75559   0.82403
 1111  O   1.87787   1.27989   1.68888   1.84868
 1112  N   1.53328   1.19332   1.53465   1.21091
 1113  H   0.66706
 1114  C   1.05710   1.15382   1.13340   0.89305
 1115  H   0.83550
 1116  H   0.83768
 1117  H   0.83544
 1118  H   0.83979
 1119  C   1.10505   0.75484   0.73538   0.91344
 1120  O   1.88315   1.71068   1.59672   1.48266
 1121  N   1.54487   1.42816   1.34568   1.20818
 1122  H   0.65359
 1123  C   1.08071   0.93112   1.08421   0.93135
 1124  H   0.80944
 1125  C   1.07313   1.07913   0.95392   0.98256
 1126  H   0.84398
 1127  C   1.05811   1.18710   1.08406   1.12927
 1128  H   0.84361
 1129  H   0.84851
 1130  H   0.85209
 1131  C   1.05414   1.07579   1.13448   1.01859
 1132  H   0.85374
 1133  H   0.85464
 1134  C   1.04917   1.14385   1.15109   1.09059
 1135  H   0.84994
 1136  H   0.85973
 1137  H   0.84941
 1138  C   1.07217   0.84173   0.73683   0.77778
 1139  O   1.87775   1.89038   1.52074   1.39087
 1140  N   1.54464   1.10286   1.52633   1.33527
 1141  H   0.63241
 1142  C   1.06990   0.84573   1.05447   1.03727
 1143  H   0.81836
 1144  C   1.06008   1.09233   1.04542   1.09658
 1145  H   0.83539
 1146  H   0.84698
 1147  C   1.05101   1.08530   1.04439   1.07705
 1148  H   0.85104
 1149  H   0.84435
 1150  C   1.05931   1.08195   1.05389   1.09883
 1151  H   0.84124
 1152  H   0.83220
 1153  C   1.07848   1.02197   0.99731   1.07336
 1154  H   0.81365
 1155  H   0.83330
 1156  N   1.46145   1.23165   1.23339   1.26029
 1157  H   0.68607
 1158  H   0.70102
 1159  H   0.68840
 1160  C   1.07854   0.77963   0.75017   0.82548
 1161  O   1.88109   1.77280   1.69327   1.29096
 1162  N   1.54482   1.32900   1.42540   1.23090
 1163  H   0.64022
 1164  C   1.07021   0.91853   0.95743   1.02916
 1165  H   0.83232
 1166  C   1.06275   1.10011   1.01964   1.13294
 1167  H   0.83505
 1168  H   0.84544
 1169  C   1.05371   1.07063   0.96082   0.96352
 1170  H   0.85927
 1171  C   1.06224   1.16615   1.13947   1.09223
 1172  H   0.85202
 1173  H   0.84902
 1174  H   0.85257
 1175  C   1.05740   1.18280   1.13708   1.08869
 1176  H   0.85369
 1177  H   0.84793
 1178  H   0.85445
 1179  C   1.08406   0.79308   0.79890   0.75892
 1180  O   1.88078   1.63589   1.59926   1.53796
 1181  N   1.54232   1.36606   1.43780   1.16082
 1182  H   0.64545
 1183  C   1.06680   0.91592   0.92698   1.04937
 1184  H   0.83155
 1185  C   1.05984   1.16210   1.07553   1.16312
 1186  H   0.82160
 1187  H   0.83620
 1188  H   0.82424
 1189  C   1.08837   0.78430   0.78344   0.75116
 1190  O   1.87215   1.83345   1.36595   1.59726
 1191  N   1.54659   1.17392   1.32681   1.48958
 1192  H   0.67177
 1193  C   1.07497   0.88362   1.07523   0.93165
 1194  H   0.81963
 1195  C   1.07744   1.15029   1.16720   1.01972
 1196  H   0.80969
 1197  H   0.83510
 1198  C   1.07050   0.73381   0.73837   0.69299
 1199  O   1.88721   1.66142   1.47252   1.70160
 1200  O   1.87192   1.80962   1.44679   1.74900
 1201  C   1.08882   0.81807   0.79602   0.75100
 1202  O   1.88735   1.28861   1.79492   1.57894
 1203  N   1.56630   1.29089   1.17152   1.53600
 1204  H   0.68196
 1205  C   1.08008   1.02266   0.91630   0.95382
 1206  H   0.83911
 1207  C   1.05575   1.07814   1.20277   0.96256
 1208  H   0.81405
 1209  H   0.81867
 1210  C   1.07460   0.97359   0.97753   0.97027
 1211  C   1.09015   1.04118   1.04107   1.01345
 1212  H   0.83917
 1213  C   1.08880   0.98513   1.06204   1.00996
 1214  H   0.84171
 1215  C   1.08756   1.05969   0.99124   1.03147
 1216  H   0.84738
 1217  C   1.08927   1.03674   1.03651   0.98970
 1218  H   0.83207
 1219  C   1.08695   0.98720   1.06350   1.02488
 1220  H   0.84027
 1221  C   1.08836   0.80303   0.77400   0.76446
 1222  O   1.88525   1.44391   1.55935   1.71434
 1223  N   1.53925   1.41484   1.43654   1.13535
 1224  H   0.68342
 1225  C   1.06852   0.98823   1.06719   0.98192
 1226  H   0.81183
 1227  H   0.80745
 1228  C   1.07940   0.82863   0.77925   0.70657
 1229  O   1.87677   1.84132   1.32530   1.61336
 1230  N   1.55748   1.29706   1.23254   1.44624
 1231  H   0.67359
 1232  C   1.07732   0.89833   1.03238   0.96632
 1233  H   0.83527
 1234  C   1.06795   1.11143   0.95121   1.17690
 1235  H   0.83482
 1236  H   0.83001
 1237  C   1.05173   1.03353   0.96100   1.00930
 1238  H   0.86361
 1239  C   1.05599   1.16792   1.06742   1.16445
 1240  H   0.85739
 1241  H   0.84525
 1242  H   0.85551
 1243  C   1.05565   1.17079   1.18853   1.04789
 1244  H   0.84158
 1245  H   0.84287
 1246  H   0.85745
 1247  C   1.09485   0.85702   0.76452   0.72353
 1248  O   1.88109   1.32547   1.78551   1.59440
 1249  N   1.58229   1.28155   1.23439   1.52191
 1250  H   0.66078
 1251  C   1.06822   0.96364   0.99673   0.95540
 1252  H   0.83603
 1253  C   1.05863   1.14019   1.09764   1.17419
 1254  H   0.84428
 1255  H   0.81088
 1256  H   0.81025
 1257  C   1.07604   0.83437   0.75153   0.78112
 1258  O   1.88386   1.50026   1.60003   1.64963
 1259  N   1.54297   1.31111   1.51253   1.14430
 1260  H   0.67593
 1261  C   1.06245   0.92455   1.14575   1.10580
 1262  H   0.82660
 1263  H   0.82993
 1264  H   0.83905
 1265  H   0.84208
 1266  C   1.10451   0.72518   0.79425   0.87712
 1267  O   1.88382   1.53346   1.36212   1.88327
 1268  N   1.54267   1.48690   1.35094   1.14844
 1269  H   0.67726
 1270  C   1.07285   1.11778   0.96748   0.82180
 1271  H   0.80343
 1272  C   1.05799   1.09223   1.02691   1.14968
 1273  H   0.83315
 1274  H   0.82242
 1275  C   1.06421   0.97639   0.94919   0.96722
 1276  C   1.08249   1.02038   0.99398   1.05811
 1277  H   0.84078
 1278  C   1.08194   1.04739   1.02774   0.99899
 1279  H   0.84631
 1280  C   1.08095   1.00808   1.05588   1.02632
 1281  H   0.85088
 1282  C   1.08037   1.02422   1.00335   1.05499
 1283  H   0.85536
 1284  C   1.08320   1.05748   1.02530   0.99517
 1285  H   0.83983
 1286  C   1.08065   0.76577   0.78590   0.79863
 1287  O   1.88385   1.53929   1.68053   1.53387
 1288  N   1.53699   1.17737   1.34789   1.43217
 1289  H   0.67039
 1290  C   1.05821   1.14179   0.97763   0.99742
 1291  H   0.81365
 1292  H   0.78670
 1293  C   1.07322   0.78169   0.75138   0.80230
 1294  O   1.87191   1.55712   1.40062   1.83890
 1295  N   1.53447   1.40606   1.37143   1.17543
 1296  H   0.64787
 1297  C   1.07488   1.00361   1.20108   0.87844
 1298  H   0.80894
 1299  H   0.79330
 1300  C   1.08114   0.77432   0.74572   0.80722
 1301  O   1.88288   1.52185   1.53284   1.73130
 1302  N   1.56526   1.44482   1.16716   1.26725
 1303  C   1.07056   1.06978   0.86720   1.05569
 1304  H   0.83595
 1305  H   0.83921
 1306  C   1.05731   1.04576   1.13956   1.05918
 1307  H   0.84673
 1308  H   0.80368
 1309  C   1.06105   1.08275   0.98318   1.17211
 1310  H   0.83532
 1311  H   0.81949
 1312  C   1.07350   1.05214   1.00126   0.86756
 1313  H   0.81339
 1314  C   1.08832   0.76340   0.76831   0.82869
 1315  O   1.88393   1.42711   1.43565   1.88334
 1316  N   1.54313   1.40352   1.48385   1.11752
 1317  H   0.64354
 1318  C   1.08217   1.04962   1.11407   0.89133
 1319  H   0.80106
 1320  H   0.78754
 1321  C   1.08827   0.82551   0.73032   0.77836
 1322  O   1.88492   1.70324   1.72963   1.32960
 1323  N   1.55105   1.23218   1.41124   1.34478
 1324  H   0.68801
 1325  C   1.07567   0.86030   1.06411   0.97855
 1326  H   0.82206
 1327  C   1.05960   1.16883   1.07554   0.97649
 1328  H   0.83473
 1329  H   0.83910
 1330  C   1.05817   1.13844   1.07475   1.02377
 1331  H   0.82460
 1332  H   0.87166
 1333  C   1.06376   1.08748   1.09999   0.78143
 1334  H   0.85051
 1335  H   0.81928
 1336  N   1.53280   1.62695   1.28989   1.09337
 1337  H   0.64877
 1338  C   0.97598   0.83626   0.80288   0.79452
 1339  N   1.50145   1.56336   1.25853   1.24813
 1340  H   0.67465
 1341  H   0.62643
 1342  N   1.50406   1.55705   1.35351   1.14119
 1343  H   0.64457
 1344  H   0.63728
 1345  C   1.08266   0.75719   0.77378   0.84394
 1346  O   1.88770   1.48021   1.64681   1.56774
 1347  N   1.54264   1.54560   1.19720   1.23961
 1348  H   0.67295
 1349  C   1.08981   1.00041   1.01000   0.92070
 1350  H   0.80192
 1351  C   1.08624   0.93158   0.92693   0.87783
 1352  H   0.85052
 1353  C   1.05853   1.09786   1.12861   1.20541
 1354  H   0.82424
 1355  H   0.83405
 1356  H   0.83062
 1357  O   1.84295   1.58299   1.64081   1.56956
 1358  H   0.62605
 1359  C   1.07893   0.81318   0.79144   0.76306
 1360  O   1.88744   1.53682   1.79114   1.36973
 1361  N   1.55255   1.32715   1.29587   1.37687
 1362  H   0.65268
 1363  C   1.07402   0.98840   0.92745   0.99324
 1364  H   0.81789
 1365  C   1.05792   1.09580   1.06834   1.08719
 1366  H   0.84095
 1367  H   0.82573
 1368  C   1.06125   0.97174   0.97475   1.05782
 1369  C   1.08279   0.97272   1.07910   0.99039
 1370  H   0.84476
 1371  C   1.08112   1.07858   0.99611   1.02041
 1372  H   0.81288
 1373  C   1.06626   0.82765   0.89527   0.91088
 1374  O   1.84144   1.46730   1.53911   1.69565
 1375  H   0.63609
 1376  C   1.07366   0.99031   1.09177   1.07087
 1377  H   0.84772
 1378  C   1.08162   1.06399   0.99910   0.99590
 1379  H   0.85934
 1380  C   1.08214   0.77618   0.73397   0.82115
 1381  O   1.88473   1.39061   1.55641   1.82941
 1382  N   1.55034   1.20067   1.60169   1.14800
 1383  H   0.66095
 1384  C   1.08714   1.11677   1.03451   0.83760
 1385  H   0.82141
 1386  C   1.08252   0.83235   0.89088   1.00022
 1387  H   0.86890
 1388  C   1.05716   1.09851   1.14089   1.18961
 1389  H   0.83058
 1390  H   0.84590
 1391  H   0.84177
 1392  O   1.84701   1.32373   1.76622   1.66663
 1393  H   0.61662
 1394  C   1.08214   0.82841   0.76394   0.79214
 1395  O   1.88735   1.29201   1.70656   1.67692
 1396  N   1.54291   1.22792   1.27113   1.47584
 1397  H   0.64938
 1398  C   1.07062   0.98381   1.04045   1.07616
 1399  H   0.84402
 1400  H   0.80893
 1401  C   1.07031   0.85093   0.72021   0.75162
 1402  O   1.88500   1.70091   1.45759   1.55939
 1403  N   1.55347   1.14732   1.51373   1.33247
 1404  H   0.68000
 1405  C   1.07068   0.82937   0.98758   1.12913
 1406  H   0.81441
 1407  C   1.05317   1.16400   0.98934   1.05170
 1408  H   0.83959
 1409  H   0.83589
 1410  C   1.05989   1.20577   1.01229   1.13857
 1411  H   0.84330
 1412  H   0.82590
 1413  C   1.06679   0.72328   0.72086   0.72886
 1414  O   1.88766   1.47094   1.82239   1.63670
 1415  O   1.88495   1.51873   1.58601   1.81469
 1416  C   1.08674   0.77111   0.86253   0.75457
 1417  O   1.88733   1.64850   1.65303   1.40956
 1418  N   1.54581   1.31030   1.19199   1.47846
 1419  H   0.65319
 1420  C   1.07214   1.06261   0.88116   1.00767
 1421  H   0.84373
 1422  C   1.05448   1.01875   1.03226   0.97088
 1423  H   0.83614
 1424  C   1.05591   1.17740   1.04875   1.19324
 1425  H   0.84548
 1426  H   0.83593
 1427  H   0.83792
 1428  C   1.05456   1.18126   1.16760   1.06153
 1429  H   0.84077
 1430  H   0.83993
 1431  H   0.85204
 1432  C   1.07559   0.77107   0.73160   0.84208
 1433  O   1.88367   1.36364   1.63753   1.76938
 1434  N   1.53826   1.27315   1.47283   1.21108
 1435  H   0.66898
 1436  C   1.07707   1.00703   1.05455   0.86790
 1437  H   0.82266
 1438  C   1.06062   1.02675   1.01601   0.97683
 1439  H   0.84058
 1440  C   1.05418   1.18408   1.09813   1.12136
 1441  H   0.84117
 1442  H   0.84082
 1443  H   0.85076
 1444  C   1.05740   1.18954   1.16694   1.05257
 1445  H   0.84574
 1446  H   0.83578
 1447  H   0.83887
 1448  C   1.08143   0.80670   0.78617   0.75098
 1449  O   1.88310   1.81186   1.47393   1.46073
 1450  N   1.53599   1.23667   1.43118   1.31659
 1451  H   0.66404
 1452  C   1.07957   0.90445   0.96812   1.14813
 1453  H   0.80533
 1454  C   1.07974   0.93513   0.82452   0.98336
 1455  H   0.86621
 1456  C   1.05745   1.09517   1.13582   1.19614
 1457  H   0.82495
 1458  H   0.82213
 1459  H   0.84143
 1460  O   1.84757   1.47784   1.49387   1.78187
 1461  H   0.64863
 1462  C   1.07076   0.75356   0.82654   0.79809
 1463  O   1.88056   1.50712   1.88265   1.36448
 1464  N   1.53716   1.55032   1.12171   1.29447
 1465  H   0.65706
 1466  C   1.05410   1.16770   0.87328   1.13576
 1467  H   0.83027
 1468  H   0.83691
 1469  H   0.85133
 1470  H   0.82730
 1471  C   1.10847   0.72193   0.77568   0.90300
 1472  O   1.87917   1.50032   1.39722   1.89103
 1473  N   1.54805   1.50780   1.35865   1.13684
 1474  H   0.67048
 1475  C   1.07820   1.08301   1.04080   0.80193
 1476  H   0.80372
 1477  C   1.05904   1.13433   0.99961   1.10165
 1478  H   0.81850
 1479  H   0.82221
 1480  C   1.06602   0.97579   0.99267   1.00497
 1481  C   1.08223   0.99079   1.02513   1.00499
 1482  H   0.83766
 1483  C   1.07634   1.10498   1.04972   1.06615
 1484  H   0.82050
 1485  C   1.07249   0.88655   0.88221   0.88003
 1486  O   1.83869   1.35493   1.61293   1.73276
 1487  H   0.61924
 1488  C   1.07859   0.98854   1.09949   1.09650
 1489  H   0.82123
 1490  C   1.08812   1.07866   0.97899   0.96928
 1491  H   0.83502
 1492  C   1.08087   0.79997   0.76889   0.79198
 1493  O   1.88630   1.81389   1.69947   1.28040
 1494  N   1.53471   1.25587   1.50896   1.18458
 1495  H   0.67091
 1496  C   1.06143   0.92035   1.08953   1.16676
 1497  H   0.83444
 1498  H   0.82973
 1499  H   0.83855
 1500  H   0.82500
 1501  C   1.10798   0.78631   0.88384   0.71626
 1502  O   1.88012   1.43036   1.87072   1.50908
 1503  N   1.55065   1.37513   1.18539   1.44524
 1504  H   0.64435
 1505  C   1.07868   0.96567   0.86313   1.12895
 1506  H   0.81503
 1507  C   1.05975   0.97992   0.99675   1.07642
 1508  H   0.84641
 1509  C   1.05205   1.15822   1.06255   1.17605
 1510  H   0.84450
 1511  H   0.84460
 1512  H   0.84170
 1513  C   1.04780   0.99992   1.12969   1.08505
 1514  H   0.86663
 1515  H   0.85358
 1516  C   1.04900   1.11603   1.12965   1.14938
 1517  H   0.85859
 1518  H   0.85754
 1519  H   0.84120
 1520  C   1.07238   0.85962   0.73791   0.75018
 1521  O   1.87626   1.57614   1.55610   1.67372
 1522  N   1.54215   1.18493   1.41748   1.37458
 1523  H   0.66208
 1524  C   1.07134   0.87896   1.16323   1.10822
 1525  H   0.84317
 1526  H   0.83234
 1527  H   0.83426
 1528  H   0.82778
 1529  C   1.10757   0.84810   0.73305   0.82095
 1530  O   1.88537   1.81624   1.62605   1.36632
 1531  N   1.53783   1.25350   1.40334   1.30550
 1532  H   0.64772
 1533  C   1.05910   0.89176   1.04047   1.02406
 1534  H   0.81976
 1535  C   1.06063   1.03210   1.11431   1.11516
 1536  H   0.82464
 1537  H   0.84713
 1538  C   1.04448   0.99039   0.96359   1.05936
 1539  H   0.88119
 1540  C   1.05460   1.16354   1.06794   1.18090
 1541  H   0.83748
 1542  H   0.84767
 1543  H   0.85400
 1544  C   1.05255   1.12341   1.17240   1.10869
 1545  H   0.85740
 1546  H   0.84738
 1547  H   0.84075
 1548  C   1.07864   0.72940   0.86483   0.77485
 1549  O   1.88190   1.57527   1.45128   1.73509
 1550  N   1.53995   1.57318   1.21232   1.19372
 1551  H   0.66194
 1552  C   1.07188   1.01920   0.93482   0.96172
 1553  H   0.81159
 1554  C   1.05670   1.17071   1.07951   0.99164
 1555  H   0.82417
 1556  H   0.82600
 1557  C   1.05681   1.12998   1.08788   1.03622
 1558  H   0.85319
 1559  H   0.82420
 1560  C   1.06364   1.15818   0.94492   0.90196
 1561  H   0.81633
 1562  H   0.83543
 1563  N   1.52415   1.16145   1.42471   1.39819
 1564  H   0.63976
 1565  C   0.99140   0.79132   0.81235   0.81838
 1566  N   1.51719   1.11637   1.46809   1.48665
 1567  H   0.65570
 1568  H   0.63932
 1569  N   1.50867   1.25119   1.39996   1.41138
 1570  H   0.64203
 1571  H   0.64052
 1572  C   1.08173   0.87185   0.77090   0.74357
 1573  O   1.88718   1.60985   1.60111   1.52990
 1574  N   1.53972   1.17476   1.27123   1.51475
 1575  H   0.65673
 1576  C   1.07442   0.85634   1.08609   1.03951
 1577  H   0.82257
 1578  C   1.06138   1.16456   1.09821   0.98347
 1579  H   0.84191
 1580  H   0.83816
 1581  C   1.04770   1.08173   0.96084   0.94831
 1582  H   0.86927
 1583  C   1.05596   1.17122   1.16290   1.07741
 1584  H   0.85490
 1585  H   0.86163
 1586  H   0.84630
 1587  C   1.05688   1.15866   1.09148   1.15809
 1588  H   0.85184
 1589  H   0.86101
 1590  H   0.84336
 1591  C   1.08285   0.71496   0.76194   0.70281
 1592  O   1.88399   1.46770   1.86981   1.62361
 1593  O   1.88771   1.54661   1.59337   1.80239

 **********************
 *                    *
 * JOB ENDED NORMALLY *
 *                    *
 **********************



 TOTAL JOB TIME:            39.97 SECONDS

 == MOPAC DONE ==
