 *******************************************************************************
 **                                                                           **
 **                              MOPAC v23.2.2                                **
 **                                                                           **
 *******************************************************************************
 **          Digital Object Identifier (DOI): 10.5281/zenodo.6511958          **
 **    Visit the DOI location for information on how to cite this program.    **
 *******************************************************************************

                              PM7 CALCULATION RESULTS

 *******************************************************************************
 *  CALCULATION DONE: (MAX THREADS = 12)             Tue Jan 27 16:14:46 2026  *
 *  PM7        - The PM7 Hamiltonian to be used
 *  MOZYME     - USE LOCALIZED M.O.s IN SOLVING THE SCF EQUATIONS
 *
 *
 *
 *                 CHARGE ON SYSTEM = +2
 *
 *
 *
 *  EPS=78.4   - USE ANDREAS KLAMT'S COSMO IMPLICIT SOLVATION MODEL
 *  1SCF       - DO 1 SCF AND THEN STOP 
 *  T=         - A TIME OF 172800.0 SECONDS REQUESTED
 *  DUMP=N     - RESTART FILE WRITTEN EVERY 7200.0 SECONDS REQUESTED
 *******************************************************************************
PM7 1SCF MOZYME CHARGE=2 EPS=78.4


   ATOM   CHEMICAL          X               Y               Z
  NUMBER   SYMBOL      (ANGSTROMS)     (ANGSTROMS)     (ANGSTROMS)

     1       H         71.69100000  *  165.23700000  * -45.36000000  *
     2       C         70.72700000  *  165.64400000  * -45.02500000  *
     3       O         70.67100000  *  166.69300000  * -44.40000000  *
     4       N         69.64800000  *  164.94600000  * -45.35400000  *
     5       H         69.74300000  *  164.08600000  * -45.86500000  *
     6       C         68.31800000  *  165.37700000  * -44.95100000  *
     7       H         68.30400000  *  166.44500000  * -44.75000000  *
     8       C         67.27900000  *  165.08100000  * -46.05800000  *
     9       H         67.27200000  *  164.02200000  * -46.29800000  *
    10       C         65.89200000  *  165.46600000  * -45.59200000  *
    11       H         65.46400000  *  166.22900000  * -46.24500000  *
    12       H         65.23700000  *  164.60600000  * -45.62700000  *
    13       H         65.87600000  *  165.89500000  * -44.58400000  *
    14       C         67.63700000  *  165.85600000  * -47.31700000  *
    15       H         68.59400000  *  165.52900000  * -47.70800000  *
    16       H         66.87900000  *  165.66900000  * -48.07700000  *
    17       H         67.68800000  *  166.92100000  * -47.10100000  *
    18       C         67.91500000  *  164.66400000  * -43.65700000  *
    19       O         67.55300000  *  165.30600000  * -42.67600000  *
    20       N         67.98400000  *  163.33800000  * -43.65800000  *
    21       H         68.28400000  *  162.85200000  * -44.48600000  *
    22       C         67.62300000  *  162.54400000  * -42.48700000  *
    23       H         67.90600000  *  163.07600000  * -41.58100000  *
    24       C         66.12800000  *  162.23500000  * -42.45900000  *
    25       H         65.92600000  *  161.47400000  * -43.20900000  *
    26       H         65.88500000  *  161.80700000  * -41.48800000  *
    27       C         65.21300000  *  163.39800000  * -42.74000000  *
    28       H         65.33100000  *  164.15700000  * -41.96400000  *
    29       H         65.45900000  *  163.81400000  * -43.69700000  *
    30       C         63.76600000  *  162.97200000  * -42.82400000  *
    31       O         63.44700000  *  162.11400000  * -43.67900000  *
    32       O         62.94800000  *  163.49400000  * -42.03400000  *
    33       C         68.34700000  *  161.22200000  * -42.57700000  *
    34       O         68.73000000  *  160.78800000  * -43.66100000  *
    35       N         68.52400000  *  160.57500000  * -41.43500000  *
    36       H         68.03000000  *  160.89100000  * -40.60600000  *
    37       C         69.17300000  *  159.28200000  * -41.42100000  *
    38       H         69.95100000  *  159.22100000  * -42.17800000  *
    39       C         69.75600000  *  159.01000000  * -40.03200000  *
    40       H         70.21900000  *  159.94300000  * -39.71800000  *
    41       H         68.96300000  *  158.79100000  * -39.31600000  *
    42       C         70.79800000  *  157.89600000  * -39.98300000  *
    43       H         70.31100000  *  156.94100000  * -40.17400000  *
    44       H         71.53800000  *  158.07300000  * -40.76900000  *
    45       C         71.50100000  *  157.83200000  * -38.61800000  *
    46       H         70.74900000  *  157.59000000  * -37.86000000  *
    47       H         72.23100000  *  157.01800000  * -38.63800000  *
    48       C         72.18600000  *  159.16200000  * -38.26900000  *
    49       H         72.83200000  *  159.42500000  * -39.10900000  *
    50       H         71.41200000  *  159.93100000  * -38.15600000  *
    51       N         73.00000000  *  159.10500000  * -37.02500000  *
    52       H         73.70000000  *  158.37000000  * -37.07400000  *
    53       H         73.43800000  *  159.98800000  * -36.79300000  *
    54       H         72.39100000  *  158.85400000  * -36.25100000  *
    55       C         68.06200000  *  158.28700000  * -41.74800000  *
    56       O         67.16300000  *  158.08100000  * -40.94600000  *
    57       N         68.06600000  *  157.74200000  * -42.96700000  *
    58       H         68.86500000  *  157.93400000  * -43.55000000  *
    59       C         67.13900000  *  156.68000000  * -43.40200000  *
    60       H         66.12500000  *  157.08300000  * -43.42100000  *
    61       C         67.50500000  *  156.19700000  * -44.82500000  *
    62       H         68.58400000  *  156.24800000  * -44.94100000  *
    63       C         67.09300000  *  154.74600000  * -45.11100000  *
    64       H         66.01500000  *  154.62300000  * -45.01000000  *
    65       H         67.41100000  *  154.47600000  * -46.11300000  *
    66       H         67.59500000  *  154.05400000  * -44.43800000  *
    67       C         66.87300000  *  157.16500000  * -45.84100000  *
    68       H         65.78800000  *  157.06300000  * -45.82400000  *
    69       H         67.10800000  *  158.17500000  * -45.52100000  *
    70       C         67.37200000  *  156.99100000  * -47.28100000  *
    71       H         67.04500000  *  156.04000000  * -47.69000000  *
    72       H         66.97400000  *  157.79100000  * -47.90200000  *
    73       H         68.45800000  *  157.03300000  * -47.30900000  *
    74       C         67.13200000  *  155.54000000  * -42.38400000  *
    75       O         66.06900000  *  155.07100000  * -41.97500000  *
    76       N         68.32600000  *  155.12400000  * -41.96200000  *
    77       H         69.16100000  *  155.54500000  * -42.35600000  *
    78       C         68.49400000  *  154.14400000  * -40.90700000  *
    79       H         68.45800000  *  154.64900000  * -39.94100000  *
    80       H         67.67900000  *  153.41900000  * -40.94500000  *
    81       C         69.81400000  *  153.39800000  * -41.00000000  *
    82       O         70.84400000  *  153.92300000  * -41.42700000  *
    83       N         69.76600000  *  152.16200000  * -40.52800000  *
    84       H         68.85900000  *  151.79400000  * -40.27700000  *
    85       C         70.91800000  *  151.45600000  * -39.99200000  *
    86       H         71.81600000  *  152.06600000  * -40.09600000  *
    87       C         70.66900000  *  151.22700000  * -38.49100000  *
    88       H         69.84800000  *  150.52200000  * -38.35700000  *
    89       H         71.57800000  *  150.80300000  * -38.08900000  *
    90       C         70.35200000  *  152.51900000  * -37.71200000  *
    91       H         71.15800000  *  153.23900000  * -37.87400000  *
    92       H         69.43500000  *  152.96800000  * -38.09900000  *
    93       C         70.16000000  *  152.27200000  * -36.20800000  *
    94       O         69.20000000  *  151.56600000  * -35.82200000  *
    95       O         70.91700000  *  152.85700000  * -35.39900000  *
    96       C         71.12000000  *  150.15800000  * -40.78400000  *
    97       O         70.39900000  *  149.17500000  * -40.59600000  *
    98       N         72.03000000  *  150.19800000  * -41.75900000  *
    99       H         72.65500000  *  150.99400000  * -41.81700000  *
   100       C         72.15300000  *  149.17000000  * -42.79400000  *
   101       H         71.15800000  *  148.82500000  * -43.07900000  *
   102       H         72.61200000  *  149.62300000  * -43.67100000  *
   103       C         72.98600000  *  147.94900000  * -42.39400000  *
   104       O         73.49700000  *  147.83400000  * -41.28100000  *
   105       N         73.18300000  *  147.05300000  * -43.36100000  *
   106       H         72.72100000  *  147.19600000  * -44.25000000  *
   107       C         74.04000000  *  145.85300000  * -43.26500000  *
   108       H         73.76000000  *  145.28300000  * -42.37900000  *
   109       C         73.82800000  *  144.95900000  * -44.50000000  *
   110       H         74.59900000  *  144.18800000  * -44.54100000  *
   111       C         72.46500000  *  144.27800000  * -44.47000000  *
   112       H         71.66500000  *  145.01700000  * -44.51500000  *
   113       H         72.38500000  *  143.60300000  * -45.32200000  *
   114       H         72.38000000  *  143.68900000  * -43.55700000  *
   115       O         73.90000000  *  145.75800000  * -45.65600000  *
   116       H         73.34800000  *  145.34900000  * -46.36000000  *
   117       C         75.53800000  *  146.15700000  * -43.14900000  *
   118       O         76.26300000  *  145.33600000  * -42.59400000  *
   119       N         75.98800000  *  147.32700000  * -43.62900000  *
   120       H         75.31800000  *  147.88500000  * -44.13100000  *
   121       C         77.40800000  *  147.71500000  * -43.72400000  *
   122       H         78.00800000  *  147.06000000  * -43.08900000  *
   123       C         77.88100000  *  147.53200000  * -45.17800000  *
   124       H         77.29300000  *  148.18700000  * -45.82200000  *
   125       H         78.92300000  *  147.83800000  * -45.25900000  *
   126       C         77.80200000  *  146.11900000  * -45.69900000  *
   127       C         78.69800000  *  145.15600000  * -45.20700000  *
   128       H         79.45100000  *  145.43300000  * -44.47900000  *
   129       C         78.60100000  *  143.82600000  * -45.64300000  *
   130       H         79.28500000  *  143.09100000  * -45.24900000  *
   131       C         77.60500000  *  143.46100000  * -46.57400000  *
   132       O         77.47100000  *  142.16800000  * -46.95000000  *
   133       H         77.88800000  *  141.59300000  * -46.28100000  *
   134       C         76.72600000  *  144.43500000  * -47.08800000  *
   135       H         75.95300000  *  144.15300000  * -47.78500000  *
   136       C         76.83400000  *  145.76700000  * -46.65700000  *
   137       H         76.14600000  *  146.51000000  * -47.03500000  *
   138       C         77.72900000  *  149.15700000  * -43.29000000  *
   139       O         78.87800000  *  149.57300000  * -43.41900000  *
   140       N         76.76400000  *  149.94300000  * -42.80400000  *
   141       H         75.84500000  *  149.56300000  * -42.63500000  *
   142       C         76.97800000  *  151.36000000  * -42.48000000  *
   143       H         77.52400000  *  151.43900000  * -41.54300000  *
   144       H         77.59200000  *  151.80800000  * -43.25200000  *
   145       C         75.68100000  *  152.16000000  * -42.35000000  *
   146       O         74.61200000  *  151.57000000  * -42.16200000  *
   147       N         75.75500000  *  153.49500000  * -42.44900000  *
   148       H         76.58800000  *  153.89400000  * -42.85900000  *
   149       C         74.59200000  *  154.32600000  * -42.21200000  *
   150       H         73.82600000  *  153.78000000  * -41.65800000  *
   151       C         74.95900000  *  155.54800000  * -41.37000000  *
   152       H         75.70700000  *  156.13900000  * -41.89300000  *
   153       C         73.73100000  *  156.40900000  * -41.13300000  *
   154       H         72.94300000  *  155.80300000  * -40.68200000  *
   155       H         73.98600000  *  157.21200000  * -40.45000000  *
   156       H         73.36800000  *  156.84900000  * -42.06500000  *
   157       C         75.54500000  *  155.09600000  * -40.05300000  *
   158       H         76.46000000  *  154.52800000  * -40.19800000  *
   159       H         75.77700000  *  155.95300000  * -39.42300000  *
   160       H         74.80500000  *  154.48400000  * -39.53200000  *
   161       C         74.01900000  *  154.79200000  * -43.53700000  *
   162       O         74.76100000  *  155.18400000  * -44.43700000  *
   163       N         72.70100000  *  154.66000000  * -43.67200000  *
   164       H         72.16200000  *  154.34500000  * -42.86900000  *
   165       C         71.95500000  *  155.12600000  * -44.83800000  *
   166       H         72.64200000  *  155.21700000  * -45.67500000  *
   167       C         70.84000000  *  154.15000000  * -45.25600000  *
   168       H         69.98400000  *  154.26900000  * -44.59200000  *
   169       C         70.40900000  *  154.47400000  * -46.69200000  *
   170       H         71.24400000  *  154.34200000  * -47.37900000  *
   171       H         69.59700000  *  153.81500000  * -46.99200000  *
   172       H         70.06000000  *  155.50100000  * -46.76200000  *
   173       C         71.28700000  *  152.68700000  * -45.17900000  *
   174       H         72.25500000  *  152.58100000  * -45.66000000  *
   175       H         71.36600000  *  152.37900000  * -44.13600000  *
   176       H         70.55600000  *  152.04600000  * -45.67200000  *
   177       C         71.37300000  *  156.49600000  * -44.52600000  *
   178       O         70.66200000  *  156.64300000  * -43.52700000  *
   179       N         71.62500000  *  157.49000000  * -45.37400000  *
   180       H         72.23900000  *  157.32200000  * -46.16900000  *
   181       C         71.01800000  *  158.79600000  * -45.21900000  *
   182       H         70.37900000  *  158.84300000  * -44.33800000  *
   183       C         72.10000000  *  159.86100000  * -45.06900000  *
   184       H         72.79900000  *  159.78100000  * -45.90500000  *
   185       H         71.63400000  *  160.84400000  * -45.14300000  *
   186       C         72.87100000  *  159.84300000  * -43.76800000  *
   187       C         72.34700000  *  160.43100000  * -42.61900000  *
   188       H         71.37700000  *  160.90600000  * -42.66800000  *
   189       C         73.06400000  *  160.45200000  * -41.42500000  *
   190       H         72.63300000  *  160.94600000  * -40.56800000  *
   191       C         74.33000000  *  159.87400000  * -41.37100000  *
   192       O         75.04700000  *  159.90100000  * -40.18700000  *
   193       H         74.69700000  *  160.54100000  * -39.56800000  *
   194       C         74.87500000  *  159.27800000  * -42.50300000  *
   195       H         75.78500000  *  158.71900000  * -42.41900000  *
   196       C         74.14000000  *  159.26700000  * -43.69600000  *
   197       H         74.51800000  *  158.73300000  * -44.56500000  *
   198       C         70.16700000  *  159.17400000  * -46.42900000  *
   199       O         70.41800000  *  158.72400000  * -47.55600000  *
   200       N         69.02600000  *  159.82700000  * -46.21100000  *
   201       H         68.83700000  *  160.13300000  * -45.26300000  *
   202       C         68.29400000  *  160.50600000  * -47.28000000  *
   203       H         68.28200000  *  159.90300000  * -48.19000000  *
   204       C         66.85100000  *  160.83000000  * -46.84400000  *
   205       H         66.33200000  *  159.90500000  * -46.60500000  *
   206       H         66.87100000  *  161.45000000  * -45.94600000  *
   207       C         66.04900000  *  161.54800000  * -47.94200000  *
   208       H         66.53500000  *  162.48900000  * -48.20100000  *
   209       H         66.01600000  *  160.91600000  * -48.83000000  *
   210       C         64.61800000  *  161.84000000  * -47.46400000  *
   211       H         64.14800000  *  160.91200000  * -47.13400000  *
   212       H         64.65900000  *  162.52800000  * -46.61900000  *
   213       C         63.78400000  *  162.45700000  * -48.59600000  *
   214       H         64.31800000  *  163.32600000  * -48.99300000  *
   215       H         63.69500000  *  161.71800000  * -49.40100000  *
   216       N         62.43200000  *  162.86600000  * -48.12900000  *
   217       H         62.48800000  *  163.57100000  * -47.40800000  *
   218       H         61.88700000  *  163.25900000  * -48.88500000  *
   219       H         61.91400000  *  162.08400000  * -47.75300000  *
   220       C         69.10500000  *  161.76100000  * -47.50900000  *
   221       O         69.33700000  *  162.49400000  * -46.55000000  *
   222       N         69.55500000  *  162.00600000  * -48.72500000  *
   223       H         69.34400000  *  161.34200000  * -49.46700000  *
   224       C         70.34900000  *  163.18200000  * -49.01700000  *
   225       H         70.22500000  *  163.93500000  * -48.24000000  *
   226       C         71.81400000  *  162.79200000  * -49.07000000  *
   227       H         71.97800000  *  162.06700000  * -49.86400000  *
   228       H         72.42900000  *  163.67700000  * -49.23900000  *
   229       H         72.10500000  *  162.33200000  * -48.12600000  *
   230       C         69.94400000  *  163.83800000  * -50.32200000  *
   231       O         69.22100000  *  163.25100000  * -51.12800000  *
   232       N         70.40700000  *  165.06400000  * -50.52400000  *
   233       H         70.93200000  *  165.53000000  * -49.79600000  *
   234       C         70.10800000  *  165.77900000  * -51.74600000  *
   235       H         69.54100000  *  165.15900000  * -52.44400000  *
   236       H         69.52200000  *  166.69100000  * -51.53000000  *
   237       H         71.05900000  *  166.04700000  * -52.23900000  *
   238       H         68.08600000  *  164.80700000  * -56.55000000  *
   239       C         68.21200000  *  164.39600000  * -55.53600000  *
   240       O         69.28600000  *  164.50800000  * -54.94200000  *
   241       N         67.13500000  *  163.82300000  * -55.01100000  *
   242       H         66.34000000  *  163.66800000  * -55.61500000  *
   243       C         67.13600000  *  163.21200000  * -53.68800000  *
   244       H         67.86300000  *  163.70700000  * -53.05000000  *
   245       C         65.75500000  *  163.32300000  * -53.02900000  *
   246       H         64.97700000  *  163.06900000  * -53.75000000  *
   247       C         65.64800000  *  162.36600000  * -51.85200000  *
   248       H         66.47200000  *  162.51800000  * -51.15200000  *
   249       H         64.69700000  *  162.53800000  * -51.34700000  *
   250       H         65.65200000  *  161.33900000  * -52.20000000  *
   251       C         65.54000000  *  164.75000000  * -52.56600000  *
   252       H         65.62600000  *  165.42400000  * -53.41600000  *
   253       H         64.53500000  *  164.85100000  * -52.15900000  *
   254       H         66.28400000  *  165.00300000  * -51.81000000  *
   255       C         67.52600000  *  161.76000000  * -53.84700000  *
   256       O         66.97900000  *  161.02800000  * -54.68200000  *
   257       N         68.49600000  *  161.34900000  * -53.04800000  *
   258       H         68.91100000  *  161.99700000  * -52.39100000  *
   259       C         69.01100000  *  159.99200000  * -53.10200000  *
   260       H         68.34600000  *  159.34100000  * -53.67900000  *
   261       C         70.37400000  *  159.97400000  * -53.81600000  *
   262       H         70.77500000  *  158.96500000  * -53.87500000  *
   263       C         70.21400000  *  160.50700000  * -55.21300000  *
   264       H         69.95700000  *  161.56600000  * -55.19000000  *
   265       H         71.15100000  *  160.39100000  * -55.75600000  *
   266       H         69.44200000  *  159.95000000  * -55.73600000  *
   267       C         71.37900000  *  160.85000000  * -53.05700000  *
   268       H         71.56500000  *  160.44500000  * -52.06400000  *
   269       H         72.31500000  *  160.84900000  * -53.61300000  *
   270       H         71.03600000  *  161.88400000  * -52.98400000  *
   271       C         69.19200000  *  159.37200000  * -51.72900000  *
   272       O         69.02000000  *  160.03600000  * -50.68600000  *
   273       N         69.38800000  *  158.06000000  * -51.70800000  *
   274       H         69.46500000  *  157.56900000  * -52.59400000  *
   275       C         69.76000000  *  157.31900000  * -50.51800000  *
   276       H         69.47600000  *  157.87700000  * -49.62800000  *
   277       C         68.99900000  *  155.99900000  * -50.49500000  *
   278       H         69.21500000  *  155.43700000  * -51.40100000  *
   279       H         69.29500000  *  155.41500000  * -49.62300000  *
   280       H         67.93100000  *  156.20700000  * -50.44200000  *
   281       C         71.27800000  *  157.13900000  * -50.53900000  *
   282       O         71.81500000  *  156.46000000  * -51.42000000  *
   283       N         71.97000000  *  157.79100000  * -49.60300000  *
   284       H         71.44500000  *  158.28300000  * -48.88900000  *
   285       C         73.41300000  *  157.73400000  * -49.53500000  *
   286       H         73.80300000  *  157.43200000  * -50.50200000  *
   287       C         73.96100000  *  159.11400000  * -49.18200000  *
   288       H         73.49200000  *  159.84000000  * -49.85100000  *
   289       H         73.62800000  *  159.35800000  * -48.16900000  *
   290       C         75.47300000  *  159.31600000  * -49.26600000  *
   291       H         75.96900000  *  158.63700000  * -48.57100000  *
   292       C         75.94900000  *  159.02000000  * -50.68400000  *
   293       H         75.44100000  *  159.71800000  * -51.34800000  *
   294       H         77.02400000  *  159.18800000  * -50.76300000  *
   295       H         75.74700000  *  157.98700000  * -50.96800000  *
   296       C         75.80400000  *  160.74000000  * -48.87900000  *
   297       H         75.43700000  *  160.94600000  * -47.87600000  *
   298       H         76.88200000  *  160.87900000  * -48.92200000  *
   299       H         75.32000000  *  161.42900000  * -49.57600000  *
   300       C         73.82100000  *  156.71600000  * -48.48500000  *
   301       O         73.39600000  *  156.78100000  * -47.33400000  *
   302       N         74.63900000  *  155.74600000  * -48.88800000  *
   303       H         74.87600000  *  155.72700000  * -49.87700000  *
   304       C         75.13500000  *  154.63300000  * -48.06600000  *
   305       H         74.61400000  *  154.60400000  * -47.10800000  *
   306       C         74.87500000  *  153.32400000  * -48.84800000  *
   307       H         74.45000000  *  153.57100000  * -49.82200000  *
   308       H         75.81200000  *  152.79900000  * -49.03700000  *
   309       C         73.89600000  *  152.34200000  * -48.20400000  *
   310       H         73.03500000  *  152.88400000  * -47.81700000  *
   311       H         73.54500000  *  151.68200000  * -48.99700000  *
   312       C         74.54800000  *  151.49800000  * -47.09300000  *
   313       H         75.52600000  *  151.14100000  * -47.42200000  *
   314       H         74.70200000  *  152.12900000  * -46.21500000  *
   315       C         73.67900000  *  150.28700000  * -46.70500000  *
   316       H         74.12700000  *  149.81700000  * -45.82400000  *
   317       H         72.68300000  *  150.64300000  * -46.41700000  *
   318       N         73.56700000  *  149.29300000  * -47.81100000  *
   319       H         74.47200000  *  148.94100000  * -48.09900000  *
   320       H         72.99800000  *  148.48000000  * -47.53900000  *
   321       H         73.11100000  *  149.69300000  * -48.62200000  *
   322       C         76.62400000  *  154.85200000  * -47.79900000  *
   323       O         77.41800000  *  154.69300000  * -48.71800000  *
   324       N         77.01700000  *  155.22600000  * -46.58100000  *
   325       H         76.29800000  *  155.26800000  * -45.86500000  *
   326       C         78.42200000  *  155.28900000  * -46.15900000  *
   327       H         79.06600000  *  155.59300000  * -46.98900000  *
   328       C         78.56700000  *  156.26000000  * -44.97900000  *
   329       H         78.02700000  *  155.87500000  * -44.10900000  *
   330       H         79.62500000  *  156.33900000  * -44.73000000  *
   331       C         78.01500000  *  157.64300000  * -45.34000000  *
   332       H         78.45100000  *  157.95800000  * -46.27300000  *
   333       H         76.93600000  *  157.57500000  * -45.50000000  *
   334       C         78.25100000  *  158.72500000  * -44.27900000  *
   335       H         77.97800000  *  159.68000000  * -44.73200000  *
   336       H         77.56000000  *  158.53300000  * -43.46900000  *
   337       C         79.67700000  *  158.85000000  * -43.70900000  *
   338       H         80.38400000  *  158.36300000  * -44.39700000  *
   339       H         79.95000000  *  159.91100000  * -43.68600000  *
   340       N         79.78800000  *  158.26900000  * -42.33500000  *
   341       H         79.63700000  *  157.26100000  * -42.37000000  *
   342       H         80.69600000  *  158.42600000  * -41.93200000  *
   343       H         79.10400000  *  158.64600000  * -41.70100000  *
   344       C         78.82300000  *  153.89100000  * -45.72900000  *
   345       O         78.09100000  *  153.31500000  * -44.93700000  *
   346       N         79.90700000  *  153.32000000  * -46.24700000  *
   347       H         80.40500000  *  153.76400000  * -47.01000000  *
   348       C         80.34300000  *  152.02200000  * -45.76800000  *
   349       H         79.49500000  *  151.49800000  * -45.35900000  *
   350       C         80.94400000  *  151.18600000  * -46.89500000  *
   351       H         81.78600000  *  151.78200000  * -47.16900000  *
   352       C         81.42400000  *  149.85200000  * -46.34500000  *
   353       H         80.65600000  *  149.35200000  * -45.75200000  *
   354       H         81.67900000  *  149.19900000  * -47.17900000  *
   355       H         82.34500000  *  149.95700000  * -45.76100000  *
   356       C         79.89700000  *  150.97600000  * -47.99700000  *
   357       H         79.60200000  *  151.87000000  * -48.50000000  *
   358       H         80.28300000  *  150.30500000  * -48.75000000  *
   359       C         78.59100000  *  150.36100000  * -47.52600000  *
   360       H         78.17700000  *  150.90100000  * -46.69000000  *
   361       H         77.89400000  *  150.33700000  * -48.36300000  *
   362       H         78.77100000  *  149.33300000  * -47.20900000  *
   363       C         81.33300000  *  152.07100000  * -44.61400000  *
   364       O         82.16700000  *  152.98000000  * -44.51900000  *
   365       N         81.21100000  *  151.07100000  * -43.74300000  *
   366       H         80.50300000  *  150.36100000  * -43.92800000  *
   367       C         82.04400000  *  150.90200000  * -42.55200000  *
   368       H         81.47500000  *  151.18100000  * -41.66300000  *
   369       H         82.35800000  *  149.86100000  * -42.45900000  *
   370       H         82.94700000  *  151.51400000  * -42.62000000  *
   371       H         81.25700000  *  144.04600000  * -57.89900000  *
   372       C         80.50000000  *  144.84100000  * -57.88800000  *
   373       O         79.71500000  *  144.99000000  * -58.82400000  *
   374       N         80.49900000  *  145.60300000  * -56.79700000  *
   375       H         81.28000000  *  145.52500000  * -56.16600000  *
   376       C         79.57000000  *  146.70600000  * -56.61200000  *
   377       H         78.57500000  *  146.34400000  * -56.42300000  *
   378       C         80.00500000  *  147.61000000  * -55.44200000  *
   379       H         80.89800000  *  148.18000000  * -55.68500000  *
   380       C         78.90600000  *  148.60800000  * -55.12500000  *
   381       H         77.92000000  *  148.14100000  * -55.17600000  *
   382       H         79.04500000  *  148.98700000  * -54.11600000  *
   383       H         78.93800000  *  149.43600000  * -55.83300000  *
   384       C         80.32100000  *  146.76200000  * -54.20900000  *
   385       H         81.19200000  *  146.13400000  * -54.40600000  *
   386       H         80.59400000  *  147.42200000  * -53.38900000  *
   387       C         79.18400000  *  145.87900000  * -53.76500000  *
   388       H         78.77800000  *  145.31100000  * -54.59400000  *
   389       H         79.50900000  *  145.12200000  * -53.06500000  *
   390       H         78.38800000  *  146.48300000  * -53.33500000  *
   391       C         79.54300000  *  147.54500000  * -57.87900000  *
   392       O         78.48200000  *  147.77900000  * -58.45100000  *
   393       N         80.72300000  *  147.98900000  * -58.30900000  *
   394       H         81.55800000  *  147.70100000  * -57.81200000  *
   395       C         80.85900000  *  148.80400000  * -59.51100000  *
   396       H         80.33900000  *  149.74600000  * -59.38600000  *
   397       H         81.92800000  *  148.98500000  * -59.72900000  *
   398       H         80.37800000  *  148.32200000  * -60.38100000  *
   399       H         78.96400000  *  146.08700000  * -61.65600000  *
   400       C         77.87300000  *  146.08700000  * -61.51600000  *
   401       O         77.11500000  *  145.89500000  * -62.46400000  *
   402       N         77.44600000  *  146.31800000  * -60.28000000  *
   403       H         78.13400000  *  146.42500000  * -59.54900000  *
   404       C         76.02800000  *  146.35200000  * -59.94500000  *
   405       H         75.53300000  *  145.47600000  * -60.35900000  *
   406       C         75.84100000  *  146.37400000  * -58.43100000  *
   407       H         76.20500000  *  147.30400000  * -58.01800000  *
   408       H         74.76300000  *  146.35700000  * -58.24200000  *
   409       C         76.47200000  *  145.22200000  * -57.65900000  *
   410       H         77.55000000  *  145.23900000  * -57.74900000  *
   411       C         76.08000000  *  145.34100000  * -56.19200000  *
   412       H         74.99900000  *  145.23000000  * -56.07700000  *
   413       H         76.57300000  *  144.55300000  * -55.62900000  *
   414       H         76.38500000  *  146.30900000  * -55.80100000  *
   415       C         75.99600000  *  143.89000000  * -58.23600000  *
   416       H         76.41500000  *  143.73000000  * -59.22900000  *
   417       H         76.32800000  *  143.07800000  * -57.59100000  *
   418       H         74.90500000  *  143.87400000  * -58.30500000  *
   419       C         75.32200000  *  147.55900000  * -60.54800000  *
   420       O         74.09500000  *  147.56800000  * -60.66200000  *
   421       N         76.08400000  *  148.63100000  * -60.82900000  *
   422       H         77.08200000  *  148.53500000  * -60.67700000  *
   423       C         75.60100000  *  149.83300000  * -61.53400000  *
   424       H         74.83700000  *  150.33500000  * -60.94100000  *
   425       H         76.43800000  *  150.53300000  * -61.75900000  *
   426       H         75.13800000  *  149.54900000  * -62.49200000  *
   427       H         62.79000000  *  145.77200000  * -59.27600000  *
   428       C         63.71000000  *  145.72000000  * -58.67500000  *
   429       O         63.77900000  *  145.02200000  * -57.66400000  *
   430       N         64.72400000  *  146.45200000  * -59.11400000  *
   431       H         64.63800000  *  147.05100000  * -59.92700000  *
   432       C         65.97100000  *  146.53500000  * -58.38100000  *
   433       H         65.88400000  *  146.09200000  * -57.38600000  *
   434       C         67.11600000  *  145.87700000  * -59.11400000  *
   435       H         67.33600000  *  146.42600000  * -60.03000000  *
   436       C         68.35100000  *  145.87800000  * -58.21400000  *
   437       H         68.14700000  *  145.31400000  * -57.31800000  *
   438       H         69.21000000  *  145.44500000  * -58.72400000  *
   439       H         68.64100000  *  146.89000000  * -57.94500000  *
   440       C         66.72800000  *  144.44400000  * -59.47800000  *
   441       H         66.54900000  *  143.87300000  * -58.56400000  *
   442       H         65.81500000  *  144.42400000  * -60.06800000  *
   443       C         67.77400000  *  143.72700000  * -60.29600000  *
   444       H         68.68300000  *  143.57700000  * -59.72200000  *
   445       H         67.37700000  *  142.75300000  * -60.59800000  *
   446       H         68.02300000  *  144.31300000  * -61.18000000  *
   447       C         66.29500000  *  148.01000000  * -58.22000000  *
   448       O         66.21200000  *  148.78000000  * -59.18400000  *
   449       N         66.55800000  *  148.43600000  * -56.98200000  *
   450       H         66.62500000  *  147.75100000  * -56.23300000  *
   451       C         66.89700000  *  149.83100000  * -56.67500000  *
   452       H         66.07900000  *  150.47400000  * -56.99700000  *
   453       C         67.09700000  *  150.02600000  * -55.16400000  *
   454       H         67.88400000  *  149.35600000  * -54.81400000  *
   455       C         67.47900000  *  151.46200000  * -54.79400000  *
   456       H         66.65300000  *  152.13800000  * -55.00900000  *
   457       H         67.70900000  *  151.51100000  * -53.73100000  *
   458       H         68.35600000  *  151.78500000  * -55.35100000  *
   459       C         65.80300000  *  149.70700000  * -54.41400000  *
   460       H         65.53300000  *  148.66100000  * -54.52800000  *
   461       H         65.95600000  *  149.90200000  * -53.36000000  *
   462       H         64.99200000  *  150.32800000  * -54.78700000  *
   463       C         68.15500000  *  150.21800000  * -57.44800000  *
   464       O         69.18600000  *  149.55200000  * -57.32400000  *
   465       N         68.08000000  *  151.28300000  * -58.25100000  *
   466       H         67.22500000  *  151.80400000  * -58.24500000  *
   467       C         69.18900000  *  151.69800000  * -59.08000000  *
   468       H         69.52500000  *  150.81900000  * -59.63900000  *
   469       C         68.73700000  *  152.76800000  * -60.08300000  *
   470       H         67.83400000  *  152.41100000  * -60.57900000  *
   471       H         68.47700000  *  153.68100000  * -59.53700000  *
   472       C         69.79100000  *  153.06900000  * -61.13100000  *
   473       H         70.72100000  *  153.35000000  * -60.64200000  *
   474       H         69.97400000  *  152.16800000  * -61.71600000  *
   475       C         69.35100000  *  154.17900000  * -62.08100000  *
   476       H         68.50200000  *  153.81400000  * -62.66100000  *
   477       H         69.02300000  *  155.05600000  * -61.52200000  *
   478       C         70.49800000  *  154.55900000  * -63.02400000  *
   479       H         71.33900000  *  154.89000000  * -62.40800000  *
   480       H         70.81900000  *  153.66100000  * -63.56600000  *
   481       N         70.11800000  *  155.62600000  * -63.99700000  *
   482       H         69.74700000  *  156.41600000  * -63.48300000  *
   483       H         70.92600000  *  155.93300000  * -64.52500000  *
   484       H         69.41500000  *  155.27800000  * -64.63600000  *
   485       C         70.36000000  *  152.21400000  * -58.25300000  *
   486       O         70.19400000  *  153.07400000  * -57.38700000  *
   487       N         71.53700000  *  151.64500000  * -58.50700000  *
   488       H         71.59600000  *  150.90400000  * -59.18600000  *
   489       C         72.75000000  *  152.07400000  * -57.83600000  *
   490       H         72.53800000  *  152.52600000  * -56.87100000  *
   491       C         73.72700000  *  150.91100000  * -57.67000000  *
   492       H         73.31500000  *  150.22100000  * -56.93700000  *
   493       H         73.77900000  *  150.36900000  * -58.62000000  *
   494       C         75.16700000  *  151.27300000  * -57.28800000  *
   495       H         75.65500000  *  151.80300000  * -58.10000000  *
   496       C         75.18300000  *  152.16500000  * -56.05900000  *
   497       H         74.60800000  *  151.72100000  * -55.25200000  *
   498       H         76.21000000  *  152.29600000  * -55.73500000  *
   499       H         74.78900000  *  153.14000000  * -56.31200000  *
   500       C         75.93300000  *  149.99400000  * -57.01300000  *
   501       H         75.98300000  *  149.42100000  * -57.93300000  *
   502       H         76.94600000  *  150.24200000  * -56.71200000  *
   503       H         75.43500000  *  149.41000000  * -56.23200000  *
   504       C         73.31900000  *  153.11300000  * -58.79500000  *
   505       O         73.76900000  *  152.77900000  * -59.89700000  *
   506       N         73.26700000  *  154.36900000  * -58.37800000  *
   507       H         72.92600000  *  154.57000000  * -57.44900000  *
   508       C         73.73400000  *  155.46600000  * -59.19700000  *
   509       H         73.47500000  *  155.26500000  * -60.23600000  *
   510       C         73.02500000  *  156.74200000  * -58.76000000  *
   511       H         73.45000000  *  157.06300000  * -57.80900000  *
   512       H         73.23600000  *  157.53300000  * -59.48700000  *
   513       C         71.51300000  *  156.60300000  * -58.58700000  *
   514       H         71.27400000  *  155.80900000  * -57.88500000  *
   515       C         70.97400000  *  157.88000000  * -58.01900000  *
   516       H         71.37000000  *  158.74600000  * -58.56000000  *
   517       H         69.88800000  *  157.89100000  * -58.09300000  *
   518       H         71.22100000  *  157.96000000  * -56.96600000  *
   519       C         70.85100000  *  156.29000000  * -59.92300000  *
   520       H         71.28300000  *  155.39700000  * -60.34200000  *
   521       H         69.78900000  *  156.14400000  * -59.75100000  *
   522       H         71.00300000  *  157.12700000  * -60.60700000  *
   523       C         75.24500000  *  155.67800000  * -59.15800000  *
   524       O         75.83900000  *  156.04700000  * -60.17600000  *
   525       N         75.86200000  *  155.44600000  * -57.99600000  *
   526       H         75.29500000  *  155.17900000  * -57.20400000  *
   527       C         77.30800000  *  155.64700000  * -57.82900000  *
   528       H         77.80800000  *  155.40400000  * -58.76600000  *
   529       C         77.60000000  *  157.11700000  * -57.51900000  *
   530       H         76.91700000  *  157.54400000  * -56.80300000  *
   531       H         78.58200000  *  157.17000000  * -57.04800000  *
   532       C         77.65600000  *  157.97500000  * -58.75600000  *
   533       O         78.67800000  *  157.91700000  * -59.48300000  *
   534       O         76.67400000  *  158.70400000  * -59.00000000  *
   535       C         77.97900000  *  154.81700000  * -56.73400000  *
   536       O         77.37100000  *  154.52100000  * -55.70400000  *
   537       N         79.24700000  *  154.47700000  * -56.96600000  *
   538       H         79.69800000  *  154.82400000  * -57.79800000  *
   539       C         80.06100000  *  153.73800000  * -56.00300000  *
   540       H         79.55400000  *  153.69900000  * -55.05200000  *
   541       C         80.36600000  *  152.29800000  * -56.50400000  *
   542       H         79.42700000  *  151.75200000  * -56.56200000  *
   543       C         80.98100000  *  152.34300000  * -57.88400000  *
   544       H         82.06600000  *  152.43300000  * -57.82100000  *
   545       H         80.74600000  *  151.41400000  * -58.37900000  *
   546       H         80.59600000  *  153.14500000  * -58.51000000  *
   547       C         81.29900000  *  151.58800000  * -55.53900000  *
   548       H         80.81100000  *  151.54900000  * -54.57200000  *
   549       H         81.47300000  *  150.57200000  * -55.87800000  *
   550       H         82.25900000  *  152.09200000  * -55.44900000  *
   551       C         81.36500000  *  154.53600000  * -55.81000000  *
   552       O         82.27000000  *  154.48900000  * -56.64700000  *
   553       N         81.45200000  *  155.28200000  * -54.71000000  *
   554       H         80.67600000  *  155.30400000  * -54.06400000  *
   555       C         82.62100000  *  156.11100000  * -54.44300000  *
   556       H         83.20500000  *  156.21800000  * -55.35800000  *
   557       H         82.32200000  *  157.12800000  * -54.14500000  *
   558       H         83.29700000  *  155.73900000  * -53.65600000  *
   559       H         84.58000000  *  155.17100000  * -47.07300000  *
   560       C         84.22500000  *  154.98400000  * -48.09100000  *
   561       O         84.63900000  *  155.65900000  * -49.04200000  *
   562       N         83.35800000  *  153.99100000  * -48.22200000  *
   563       H         83.13600000  *  153.42800000  * -47.41700000  *
   564       C         82.77600000  *  153.65100000  * -49.50600000  *
   565       H         83.37000000  *  154.04700000  * -50.31700000  *
   566       C         82.71900000  *  152.14000000  * -49.66000000  *
   567       H         83.74000000  *  151.87500000  * -49.95700000  *
   568       H         82.64400000  *  151.54600000  * -48.78400000  *
   569       C         81.82600000  *  151.61900000  * -50.77900000  *
   570       H         80.79100000  *  151.88400000  * -50.58700000  *
   571       C         82.25800000  *  152.23100000  * -52.09200000  *
   572       H         83.31100000  *  152.49100000  * -52.08900000  *
   573       H         82.09300000  *  151.51300000  * -52.88400000  *
   574       H         81.65400000  *  153.10900000  * -52.31200000  *
   575       C         81.89900000  *  150.09400000  * -50.82200000  *
   576       H         81.91300000  *  149.66400000  * -49.82700000  *
   577       H         81.05200000  *  149.70600000  * -51.39100000  *
   578       H         82.82500000  *  149.80300000  * -51.32100000  *
   579       C         81.36700000  *  154.23200000  * -49.54800000  *
   580       O         80.51800000  *  153.85700000  * -48.74500000  *
   581       N         81.13100000  *  155.16100000  * -50.46700000  *
   582       H         81.84500000  *  155.34800000  * -51.16200000  *
   583       C         79.82200000  *  155.78100000  * -50.60800000  *
   584       H         79.27400000  *  155.67000000  * -49.68700000  *
   585       C         79.96700000  *  157.27800000  * -50.86800000  *
   586       H         80.42300000  *  157.50400000  * -51.79700000  *
   587       H         78.95400000  *  157.66400000  * -50.98900000  *
   588       C         80.57600000  *  158.04300000  * -49.72300000  *
   589       C         79.79300000  *  158.48000000  * -48.65600000  *
   590       H         78.73500000  *  158.25400000  * -48.66900000  *
   591       C         80.35600000  *  159.18600000  * -47.59400000  *
   592       H         79.75300000  *  159.56200000  * -46.79700000  *
   593       C         81.71600000  *  159.45200000  * -47.58700000  *
   594       O         82.27600000  *  160.12500000  * -46.52100000  *
   595       H         83.20600000  *  160.30800000  * -46.74500000  *
   596       C         82.51400000  *  159.02600000  * -48.63700000  *
   597       H         83.58200000  *  159.23300000  * -48.65000000  *
   598       C         81.94100000  *  158.32800000  * -49.69800000  *
   599       H         82.57400000  *  157.98100000  * -50.50200000  *
   600       C         79.04800000  *  155.15800000  * -51.76500000  *
   601       O         79.54400000  *  155.08000000  * -52.88800000  *
   602       N         77.86200000  *  154.62400000  * -51.49600000  *
   603       H         77.53400000  *  154.65000000  * -50.53600000  *
   604       C         76.98200000  *  154.05300000  * -52.51300000  *
   605       H         77.50600000  *  154.00000000  * -53.46100000  *
   606       C         76.55200000  *  152.62000000  * -52.15200000  *
   607       H         75.86900000  *  152.66300000  * -51.31300000  *
   608       H         76.00300000  *  152.21400000  * -53.00200000  *
   609       C         77.69100000  *  151.65200000  * -51.79100000  *
   610       H         78.20600000  *  152.00300000  * -50.89700000  *
   611       C         77.12300000  *  150.26300000  * -51.50600000  *
   612       H         76.62200000  *  149.87100000  * -52.39300000  *
   613       H         77.92900000  *  149.58500000  * -51.22200000  *
   614       H         76.41100000  *  150.31800000  * -50.68400000  *
   615       C         78.69400000  *  151.52800000  * -52.93100000  *
   616       H         79.21100000  *  152.47500000  * -53.06500000  *
   617       H         79.43200000  *  150.76800000  * -52.68500000  *
   618       H         78.17900000  *  151.26100000  * -53.85400000  *
   619       C         75.78500000  *  154.98300000  * -52.67300000  *
   620       O         75.10100000  *  155.26000000  * -51.68500000  *
   621       N         75.54700000  *  155.50800000  * -53.87800000  *
   622       H         76.14500000  *  155.25500000  * -54.66000000  *
   623       C         74.40900000  *  156.37500000  * -54.09400000  *
   624       H         73.97600000  *  156.70200000  * -53.15000000  *
   625       C         74.83400000  *  157.63700000  * -54.81800000  *
   626       H         75.25500000  *  157.34500000  * -55.76600000  *
   627       C         73.61400000  *  158.52200000  * -55.10900000  *
   628       H         73.11700000  *  158.76900000  * -54.17500000  *
   629       H         73.94100000  *  159.43100000  * -55.61500000  *
   630       H         72.91600000  *  158.00900000  * -55.76200000  *
   631       C         75.84000000  *  158.38200000  * -53.94900000  *
   632       H         75.28100000  *  158.78400000  * -53.13000000  *
   633       H         76.65600000  *  157.75800000  * -53.60500000  *
   634       H         76.26100000  *  159.20400000  * -54.52500000  *
   635       C         73.31400000  *  155.64400000  * -54.85300000  *
   636       O         73.49500000  *  155.22100000  * -55.99400000  *
   637       N         72.20700000  *  155.38800000  * -54.16100000  *
   638       H         72.14000000  *  155.74400000  * -53.21100000  *
   639       C         71.02800000  *  154.71500000  * -54.69700000  *
   640       H         71.27700000  *  154.24700000  * -55.64500000  *
   641       C         70.57100000  *  153.62500000  * -53.72200000  *
   642       H         70.43600000  *  154.06800000  * -52.73600000  *
   643       H         69.59600000  *  153.26400000  * -54.04400000  *
   644       C         71.50300000  *  152.43300000  * -53.60100000  *
   645       C         71.36700000  *  151.34000000  * -54.47900000  *
   646       H         70.62800000  *  151.36400000  * -55.26600000  *
   647       C         72.18400000  *  150.20500000  * -54.33000000  *
   648       H         72.06800000  *  149.36300000  * -55.00000000  *
   649       C         73.14800000  *  150.16200000  * -53.30900000  *
   650       H         73.77700000  *  149.28900000  * -53.19500000  *
   651       C         73.29200000  *  151.25500000  * -52.43600000  *
   652       H         74.02600000  *  151.21500000  * -51.64600000  *
   653       C         72.47500000  *  152.39200000  * -52.58300000  *
   654       H         72.58700000  *  153.22800000  * -51.90600000  *
   655       C         69.89500000  *  155.71700000  * -54.93700000  *
   656       O         69.78000000  *  156.71700000  * -54.22600000  *
   657       N         69.03200000  *  155.45300000  * -55.92000000  *
   658       H         69.17600000  *  154.61500000  * -56.47500000  *
   659       C         67.74700000  *  156.16300000  * -56.02200000  *
   660       H         67.96500000  *  157.21300000  * -56.22300000  *
   661       C         66.91100000  *  155.63400000  * -57.20300000  *
   662       H         66.03900000  *  156.28000000  * -57.30600000  *
   663       H         67.49900000  *  155.70200000  * -58.11900000  *
   664       C         66.44500000  *  154.18500000  * -57.01000000  *
   665       H         67.32600000  *  153.54200000  * -56.98100000  *
   666       H         65.93600000  *  154.09800000  * -56.05400000  *
   667       C         65.47000000  *  153.68100000  * -58.07900000  *
   668       O         64.63900000  *  154.45500000  * -58.60600000  *
   669       O         65.48900000  *  152.46300000  * -58.35500000  *
   670       C         66.96600000  *  156.09600000  * -54.69000000  *
   671       O         67.00100000  *  155.08500000  * -53.98300000  *
   672       N         66.26300000  *  157.17000000  * -54.33000000  *
   673       H         66.23900000  *  157.97300000  * -54.94200000  *
   674       C         65.39500000  *  157.18700000  * -53.15000000  *
   675       H         65.84900000  *  156.58400000  * -52.36200000  *
   676       C         65.29400000  *  158.62500000  * -52.63100000  *
   677       H         66.29700000  *  158.97800000  * -52.39200000  *
   678       H         64.89700000  *  159.26200000  * -53.42200000  *
   679       C         64.43100000  *  158.78300000  * -51.39400000  *
   680       C         63.10200000  *  159.23200000  * -51.50600000  *
   681       H         62.68900000  *  159.47500000  * -52.47600000  *
   682       C         62.30300000  *  159.36200000  * -50.35600000  *
   683       H         61.28300000  *  159.70600000  * -50.44600000  *
   684       C         62.82900000  *  159.04300000  * -49.09300000  *
   685       H         62.21100000  *  159.13200000  * -48.20900000  *
   686       C         64.16100000  *  158.60800000  * -48.97900000  *
   687       H         64.56700000  *  158.36500000  * -48.00700000  *
   688       C         64.96000000  *  158.47400000  * -50.12800000  *
   689       H         65.98000000  *  158.12700000  * -50.04000000  *
   690       C         64.00800000  *  156.59900000  * -53.46500000  *
   691       O         63.39800000  *  156.94700000  * -54.47900000  *
   692       N         63.48900000  *  155.75300000  * -52.57000000  *
   693       H         64.06500000  *  155.49300000  * -51.77600000  *
   694       C         62.10000000  *  155.27000000  * -52.57400000  *
   695       H         61.52700000  *  155.78100000  * -53.35000000  *
   696       C         62.04300000  *  153.75700000  * -52.83200000  *
   697       H         62.75700000  *  153.25800000  * -52.17800000  *
   698       H         61.04600000  *  153.41700000  * -52.55200000  *
   699       C         62.29900000  *  153.36700000  * -54.29900000  *
   700       H         62.02700000  *  154.19400000  * -54.95500000  *
   701       C         63.76400000  *  152.99900000  * -54.52200000  *
   702       H         64.04300000  *  152.18100000  * -53.86200000  *
   703       H         63.92000000  *  152.70900000  * -55.56000000  *
   704       H         64.39600000  *  153.85700000  * -54.30100000  *
   705       C         61.44700000  *  152.15700000  * -54.68900000  *
   706       H         60.39300000  *  152.37200000  * -54.51200000  *
   707       H         61.57700000  *  151.94300000  * -55.74700000  *
   708       H         61.73600000  *  151.28600000  * -54.10400000  *
   709       C         61.44300000  *  155.59300000  * -51.23100000  *
   710       O         62.06800000  *  155.47300000  * -50.18400000  *
   711       N         60.19200000  *  156.03800000  * -51.24200000  *
   712       H         59.72700000  *  156.14300000  * -52.13600000  *
   713       C         59.59600000  *  156.73300000  * -50.09800000  *
   714       H         60.32000000  *  157.47000000  * -49.74600000  *
   715       C         58.37000000  *  157.51300000  * -50.58300000  *
   716       H         57.58700000  *  156.80800000  * -50.86100000  *
   717       H         58.01500000  *  158.12400000  * -49.75500000  *
   718       C         58.63300000  *  158.42200000  * -51.76300000  *
   719       N         58.78400000  *  158.00800000  * -53.09200000  *
   720       C         59.01900000  *  159.12600000  * -53.80100000  *
   721       H         59.18100000  *  159.16000000  * -54.87300000  *
   722       N         59.02300000  *  160.20000000  * -52.99400000  *
   723       H         59.17300000  *  161.15800000  * -53.29800000  *
   724       C         58.78100000  *  159.77700000  * -51.70600000  *
   725       H         58.72100000  *  160.39200000  * -50.81700000  *
   726       C         59.27500000  *  155.85900000  * -48.86800000  *
   727       O         59.08100000  *  156.41100000  * -47.78400000  *
   728       N         59.22900000  *  154.52400000  * -48.99600000  *
   729       H         59.40000000  *  154.12200000  * -49.90900000  *
   730       C         58.92300000  *  153.59700000  * -47.89300000  *
   731       H         59.37000000  *  153.99600000  * -46.98100000  *
   732       C         57.39000000  *  153.56000000  * -47.69700000  *
   733       H         57.05000000  *  154.57600000  * -47.49000000  *
   734       H         56.90900000  *  153.23000000  * -48.61900000  *
   735       C         56.93500000  *  152.65400000  * -46.54300000  *
   736       H         56.80100000  *  151.64000000  * -46.91700000  *
   737       H         57.70200000  *  152.64300000  * -45.77000000  *
   738       C         55.64300000  *  153.12700000  * -45.88600000  *
   739       O         55.65000000  *  153.79200000  * -44.86300000  *
   740       N         54.49000000  *  152.80400000  * -46.43000000  *
   741       H         53.66000000  *  153.13400000  * -45.96000000  *
   742       H         54.45500000  *  152.28600000  * -47.29000000  *
   743       C         59.52400000  *  152.19100000  * -48.11300000  *
   744       O         59.70100000  *  151.75700000  * -49.25100000  *
   745       N         59.83000000  *  151.47000000  * -47.02600000  *
   746       H         59.64600000  *  151.86900000  * -46.12000000  *
   747       C         60.23000000  *  150.05200000  * -47.05500000  *
   748       H         60.55000000  *  149.80800000  * -48.06400000  *
   749       C         61.44100000  *  149.80100000  * -46.13800000  *
   750       H         61.80500000  *  148.79000000  * -46.33200000  *
   751       H         62.24100000  *  150.48700000  * -46.41600000  *
   752       C         61.14900000  *  149.93200000  * -44.63800000  *
   753       O         60.30100000  *  149.17000000  * -44.12800000  *
   754       O         61.79500000  *  150.77400000  * -43.97300000  *
   755       C         59.05700000  *  149.11000000  * -46.71900000  *
   756       O         58.03100000  *  149.53400000  * -46.16800000  *
   757       N         59.19100000  *  147.81900000  * -47.04800000  *
   758       H         60.03800000  *  147.50900000  * -47.52500000  *
   759       C         58.10100000  *  146.88000000  * -46.84100000  *
   760       H         57.21800000  *  147.32500000  * -47.29300000  *
   761       C         58.41200000  *  145.57700000  * -47.59200000  *
   762       H         58.61300000  *  145.80400000  * -48.64400000  *
   763       H         59.28800000  *  145.12100000  * -47.15800000  *
   764       C         57.28700000  *  144.52700000  * -47.51900000  *
   765       H         57.05600000  *  144.28000000  * -46.48700000  *
   766       C         56.00700000  *  145.04400000  * -48.19600000  *
   767       H         56.23500000  *  145.37800000  * -49.20200000  *
   768       H         55.26800000  *  144.24500000  * -48.23100000  *
   769       H         55.59500000  *  145.87000000  * -47.62900000  *
   770       C         57.76800000  *  143.24900000  * -48.17500000  *
   771       H         58.61500000  *  142.85400000  * -47.62000000  *
   772       H         56.97300000  *  142.50400000  * -48.17100000  *
   773       H         58.06400000  *  143.44500000  * -49.20700000  *
   774       C         57.76400000  *  146.61300000  * -45.36900000  *
   775       O         56.60900000  *  146.37600000  * -45.03000000  *
   776       N         58.75700000  *  146.67700000  * -44.48800000  *
   777       H         59.64000000  *  147.08600000  * -44.79000000  *
   778       C         58.49100000  *  146.46700000  * -43.07300000  *
   779       H         57.97900000  *  145.55100000  * -42.87200000  *
   780       C         59.78200000  *  146.47800000  * -42.25400000  *
   781       H         60.44800000  *  145.70000000  * -42.62000000  *
   782       H         60.28600000  *  147.44000000  * -42.35600000  *
   783       C         59.49200000  *  146.22900000  * -40.76500000  *
   784       H         58.94200000  *  147.08300000  * -40.37400000  *
   785       H         58.87100000  *  145.33200000  * -40.67600000  *
   786       C         60.74500000  *  146.03800000  * -39.93500000  *
   787       H         61.36100000  *  145.25900000  * -40.37900000  *
   788       H         61.30800000  *  146.97100000  * -39.90700000  *
   789       C         60.37600000  *  145.60700000  * -38.51700000  *
   790       H         59.98500000  *  144.58900000  * -38.53700000  *
   791       H         61.27900000  *  145.61300000  * -37.90300000  *
   792       N         59.34600000  *  146.53100000  * -37.94700000  *
   793       H         58.44600000  *  146.48100000  * -38.44300000  *
   794       H         59.09000000  *  146.27800000  * -37.00400000  *
   795       H         59.61300000  *  147.50600000  * -37.97800000  *
   796       C         57.55800000  *  147.53800000  * -42.51200000  *
   797       O         56.61300000  *  147.23400000  * -41.78300000  *
   798       N         57.83900000  *  148.80900000  * -42.81000000  *
   799       H         58.67300000  *  148.99000000  * -43.37400000  *
   800       C         57.02300000  *  149.93800000  * -42.34900000  *
   801       H         56.92500000  *  149.87600000  * -41.26300000  *
   802       C         57.73500000  *  151.25500000  * -42.69500000  *
   803       H         58.76200000  *  151.20400000  * -42.32800000  *
   804       H         57.76200000  *  151.38000000  * -43.77800000  *
   805       C         57.04600000  *  152.46600000  * -42.04800000  *
   806       H         56.04300000  *  152.57600000  * -42.46200000  *
   807       H         56.96100000  *  152.29700000  * -40.97300000  *
   808       C         57.84300000  *  153.75600000  * -42.28600000  *
   809       H         58.82100000  *  153.66500000  * -41.80900000  *
   810       H         57.98300000  *  153.90700000  * -43.35800000  *
   811       C         57.09000000  *  154.95200000  * -41.69200000  *
   812       H         56.12100000  *  155.03800000  * -42.19300000  *
   813       H         56.90100000  *  154.75500000  * -40.63200000  *
   814       N         57.85400000  *  156.21600000  * -41.84100000  *
   815       H         58.02700000  *  156.42900000  * -42.81200000  *
   816       H         57.34800000  *  156.99400000  * -41.44300000  *
   817       H         58.74500000  *  156.16200000  * -41.37000000  *
   818       C         55.61200000  *  149.84500000  * -42.92700000  *
   819       O         54.63900000  *  150.09100000  * -42.22100000  *
   820       N         55.49500000  *  149.42600000  * -44.18900000  *
   821       H         56.35000000  *  149.26300000  * -44.71300000  *
   822       C         54.20500000  *  149.26000000  * -44.85200000  *
   823       H         53.62600000  *  150.17500000  * -44.72500000  *
   824       C         54.41000000  *  148.98800000  * -46.34000000  *
   825       H         54.98900000  *  149.80200000  * -46.77700000  *
   826       H         55.00200000  *  148.07700000  * -46.45200000  *
   827       C         53.12600000  *  148.85300000  * -47.10800000  *
   828       C         52.23100000  *  149.92200000  * -47.18600000  *
   829       H         52.46300000  *  150.85600000  * -46.69900000  *
   830       C         51.01500000  *  149.79500000  * -47.88400000  *
   831       H         50.32500000  *  150.62800000  * -47.91800000  *
   832       C         50.69700000  *  148.60300000  * -48.50200000  *
   833       H         49.75200000  *  148.50200000  * -49.02000000  *
   834       C         51.58700000  *  147.52100000  * -48.43200000  *
   835       H         51.33500000  *  146.58300000  * -48.91200000  *
   836       C         52.79500000  *  147.65400000  * -47.73300000  *
   837       H         53.46700000  *  146.81000000  * -47.67200000  *
   838       C         53.37400000  *  148.12200000  * -44.22700000  *
   839       O         52.16900000  *  148.28300000  * -44.00900000  *
   840       N         54.01600000  *  146.98100000  * -43.96600000  *
   841       H         55.00900000  *  146.90600000  * -44.17900000  *
   842       C         53.33800000  *  145.83600000  * -43.34100000  *
   843       H         52.47600000  *  145.52800000  * -43.93400000  *
   844       C         54.29200000  *  144.65000000  * -43.17000000  *
   845       H         55.15800000  *  145.02700000  * -42.63600000  *
   846       H         53.80700000  *  143.89200000  * -42.54700000  *
   847       C         54.73100000  *  144.00400000  * -44.46100000  *
   848       H         53.84700000  *  143.61400000  * -44.95900000  *
   849       H         55.19200000  *  144.69400000  * -45.15000000  *
   850       S         55.79700000  *  142.58100000  * -44.15400000  *
   851       C         57.05400000  *  143.29200000  * -43.18800000  *
   852       H         56.67800000  *  143.65800000  * -42.23500000  *
   853       H         57.80700000  *  142.53400000  * -42.98200000  *
   854       H         57.44300000  *  144.07900000  * -43.80900000  *
   855       C         52.84400000  *  146.26000000  * -41.95900000  *
   856       O         51.68200000  *  146.03200000  * -41.61400000  *
   857       N         53.72600000  *  146.88400000  * -41.17900000  *
   858       H         54.70100000  *  146.95700000  * -41.45300000  *
   859       C         53.34300000  *  147.35100000  * -39.84600000  *
   860       H         53.03400000  *  146.49700000  * -39.23800000  *
   861       C         54.50500000  *  148.07700000  * -39.15700000  *
   862       H         54.94100000  *  148.81500000  * -39.83000000  *
   863       H         54.12400000  *  148.60600000  * -38.28400000  *
   864       C         55.58400000  *  147.11500000  * -38.68500000  *
   865       O         55.26200000  *  145.90900000  * -38.57600000  *
   866       O         56.73300000  *  147.55200000  * -38.41700000  *
   867       C         52.15000000  *  148.27900000  * -39.96300000  *
   868       O         51.20300000  *  148.18000000  * -39.18700000  *
   869       N         52.18300000  *  149.16200000  * -40.95500000  *
   870       H         53.01600000  *  149.23700000  * -41.51800000  *
   871       C         51.08600000  *  150.10000000  * -41.17300000  *
   872       H         50.93100000  *  150.67400000  * -40.25800000  *
   873       C         51.42800000  *  151.06800000  * -42.31500000  *
   874       H         51.45500000  *  150.53900000  * -43.26600000  *
   875       H         50.66000000  *  151.83800000  * -42.36800000  *
   876       H         52.39300000  *  151.53600000  * -42.12800000  *
   877       C         49.78900000  *  149.37000000  * -41.49900000  *
   878       O         48.71100000  *  149.83600000  * -41.15600000  *
   879       N         49.90500000  *  148.22900000  * -42.16400000  *
   880       H         50.83800000  *  147.88500000  * -42.38200000  *
   881       C         48.74000000  *  147.45400000  * -42.57500000  *
   882       H         47.85700000  *  148.08600000  * -42.62800000  *
   883       H         48.90600000  *  147.02300000  * -43.58600000  *
   884       H         48.52600000  *  146.61900000  * -41.88800000  *
   885       H         72.54500000  *  137.05800000  * -55.15200000  *
   886       C         72.38600000  *  137.90500000  * -54.47400000  *
   887       O         73.28300000  *  138.71900000  * -54.28600000  *
   888       N         71.20100000  *  138.01500000  * -53.89800000  *
   889       H         70.47300000  *  137.31400000  * -54.05700000  *
   890       C         70.96800000  *  139.10000000  * -52.94900000  *
   891       H         71.50000000  *  140.00600000  * -53.22900000  *
   892       C         69.47700000  *  139.40500000  * -52.82500000  *
   893       H         69.09300000  *  139.71900000  * -53.79200000  *
   894       H         68.93000000  *  138.50600000  * -52.53300000  *
   895       C         69.17800000  *  140.45400000  * -51.81200000  *
   896       N         69.23000000  *  140.42300000  * -50.45900000  *
   897       C         68.94700000  *  141.69100000  * -50.01400000  *
   898       H         68.96900000  *  142.01200000  * -48.98400000  *
   899       N         68.72400000  *  142.47200000  * -51.05500000  *
   900       H         68.47200000  *  143.44500000  * -51.00700000  *
   901       C         68.85400000  *  141.75000000  * -52.15500000  *
   902       H         68.77100000  *  142.12600000  * -53.16500000  *
   903       C         71.52100000  *  138.65700000  * -51.58300000  *
   904       O         72.28000000  *  139.38000000  * -50.94700000  *
   905       N         71.11400000  *  137.47100000  * -51.14500000  *
   906       H         70.37100000  *  137.01600000  * -51.66500000  *
   907       C         71.55500000  *  136.88000000  * -49.87700000  *
   908       H         71.18200000  *  135.84900000  * -49.87900000  *
   909       C         73.07600000  *  136.85300000  * -49.83700000  *
   910       H         73.53100000  *  137.83300000  * -49.86900000  *
   911       H         73.36600000  *  136.47900000  * -48.85100000  *
   912       C         73.64700000  *  135.85900000  * -50.81700000  *
   913       H         73.29800000  *  134.87100000  * -50.67200000  *
   914       H         73.21600000  *  136.10500000  * -51.78700000  *
   915       C         75.11700000  *  136.08400000  * -50.99900000  *
   916       H         75.61200000  *  135.95400000  * -50.03300000  *
   917       H         75.49500000  *  135.33200000  * -51.69500000  *
   918       N         75.35800000  *  137.42700000  * -51.50600000  *
   919       H         74.62100000  *  138.12700000  * -51.38200000  *
   920       C         76.54800000  *  137.85900000  * -51.89000000  *
   921       N         77.59300000  *  137.04400000  * -51.81500000  *
   922       H         77.44700000  *  136.21200000  * -51.26800000  *
   923       H         78.49900000  *  137.44300000  * -51.92100000  *
   924       N         76.69000000  *  139.09300000  * -52.35600000  *
   925       H         75.86000000  *  139.69200000  * -52.33800000  *
   926       H         77.56200000  *  139.47800000  * -52.67100000  *
   927       C         71.03700000  *  137.42400000  * -48.54200000  *
   928       O         71.18700000  *  136.76800000  * -47.50900000  *
   929       N         70.43700000  *  138.60400000  * -48.51600000  *
   930       H         70.32800000  *  139.16900000  * -49.34700000  *
   931       C         69.93700000  *  139.07600000  * -47.23100000  *
   932       H         69.76500000  *  138.24900000  * -46.54100000  *
   933       C         70.93500000  *  140.04200000  * -46.56200000  *
   934       H         71.90900000  *  139.56600000  * -46.50900000  *
   935       H         71.04400000  *  140.94300000  * -47.17900000  *
   936       C         70.51300000  *  140.42800000  * -45.14700000  *
   937       O         70.17200000  *  139.51500000  * -44.35500000  *
   938       O         70.51000000  *  141.64400000  * -44.82500000  *
   939       C         68.58700000  *  139.73400000  * -47.37800000  *
   940       O         68.35000000  *  140.81000000  * -46.83500000  *
   941       N         67.68700000  *  139.08300000  * -48.11000000  *
   942       H         67.94300000  *  138.20800000  * -48.54500000  *
   943       C         66.35900000  *  139.64900000  * -48.29900000  *
   944       H         66.47700000  *  140.66700000  * -48.65900000  *
   945       C         65.54600000  *  138.81300000  * -49.28800000  *
   946       H         65.58300000  *  137.78400000  * -48.94500000  *
   947       H         64.50600000  *  139.14000000  * -49.25500000  *
   948       C         66.02700000  *  138.85500000  * -50.73600000  *
   949       H         67.06400000  *  138.52800000  * -50.78200000  *
   950       C         65.17300000  *  137.91700000  * -51.58300000  *
   951       H         64.15900000  *  138.30500000  * -51.68800000  *
   952       H         65.63400000  *  137.80700000  * -52.55000000  *
   953       H         65.13400000  *  136.93500000  * -51.11000000  *
   954       C         65.92100000  *  140.27700000  * -51.26400000  *
   955       H         66.42000000  *  140.99600000  * -50.63300000  *
   956       H         66.44200000  *  140.27500000  * -52.20900000  *
   957       H         64.88200000  *  140.56100000  * -51.39700000  *
   958       C         65.59400000  *  139.73400000  * -46.98200000  *
   959       O         65.58600000  *  138.79200000  * -46.16600000  *
   960       N         64.96000000  *  140.85800000  * -46.74100000  *
   961       H         64.97000000  *  141.59000000  * -47.43800000  *
   962       C         64.17600000  *  141.06900000  * -45.53800000  *
   963       H         63.56700000  *  140.17700000  * -45.39200000  *
   964       C         65.06000000  *  141.24200000  * -44.28300000  *
   965       H         64.42700000  *  141.30100000  * -43.39700000  *
   966       H         65.66500000  *  140.34300000  * -44.16700000  *
   967       C         65.98900000  *  142.46400000  * -44.29100000  *
   968       H         66.39200000  *  142.61000000  * -45.29000000  *
   969       H         65.42800000  *  143.35100000  * -43.99700000  *
   970       C         67.15300000  *  142.22200000  * -43.32200000  *
   971       H         66.76400000  *  141.95600000  * -42.33700000  *
   972       H         67.73700000  *  141.38100000  * -43.70500000  *
   973       C         68.05400000  *  143.45400000  * -43.19100000  *
   974       H         68.13800000  *  143.94000000  * -44.16800000  *
   975       H         67.57700000  *  144.16600000  * -42.50700000  *
   976       N         69.40300000  *  143.07000000  * -42.69600000  *
   977       H         69.87900000  *  142.47200000  * -43.38500000  *
   978       H         69.97400000  *  143.88700000  * -42.51900000  *
   979       H         69.33200000  *  142.55600000  * -41.82800000  *
   980       C         63.27000000  *  142.23300000  * -45.83200000  *
   981       O         63.63000000  *  143.07800000  * -46.65100000  *
   982       N         62.11200000  *  142.30300000  * -45.18600000  *
   983       C         61.62600000  *  141.34600000  * -44.17100000  *
   984       H         62.10000000  *  141.53200000  * -43.20900000  *
   985       H         61.74500000  *  140.31100000  * -44.47600000  *
   986       C         60.16400000  *  141.66900000  * -44.09500000  *
   987       H         59.73700000  *  141.34900000  * -43.14300000  *
   988       H         59.63700000  *  141.20600000  * -44.93200000  *
   989       C         60.16000000  *  143.18900000  * -44.24800000  *
   990       H         60.51600000  *  143.64900000  * -43.32100000  *
   991       H         59.20200000  *  143.56500000  * -44.57400000  *
   992       C         61.14500000  *  143.38000000  * -45.40300000  *
   993       H         60.63400000  *  143.20500000  * -46.34500000  *
   994       C         61.77100000  *  144.77100000  * -45.44800000  *
   995       O         61.39200000  *  145.58400000  * -46.27300000  *
   996       N         62.72700000  *  145.09400000  * -44.55900000  *
   997       H         62.97500000  *  144.41100000  * -43.85900000  *
   998       C         63.43200000  *  146.40000000  * -44.54300000  *
   999       H         62.69000000  *  147.19700000  * -44.46700000  *
  1000       C         64.37200000  *  146.49400000  * -43.32900000  *
  1001       H         65.06500000  *  145.65300000  * -43.34400000  *
  1002       H         64.95900000  *  147.41000000  * -43.42000000  *
  1003       C         63.65100000  *  146.54400000  * -41.97600000  *
  1004       H         62.93500000  *  147.36600000  * -41.98900000  *
  1005       H         63.11300000  *  145.61200000  * -41.81700000  *
  1006       C         64.63200000  *  146.73900000  * -40.81800000  *
  1007       O         65.64900000  *  146.06700000  * -40.70900000  *
  1008       N         64.36900000  *  147.64900000  * -39.90600000  *
  1009       H         65.02600000  *  147.76700000  * -39.14800000  *
  1010       H         63.55900000  *  148.24400000  * -39.98300000  *
  1011       C         64.27600000  *  146.68600000  * -45.80300000  *
  1012       O         64.48600000  *  147.84300000  * -46.16000000  *
  1013       N         64.75800000  *  145.63800000  * -46.47600000  *
  1014       H         64.46200000  *  144.71900000  * -46.18000000  *
  1015       C         65.53700000  *  145.70100000  * -47.71400000  *
  1016       H         66.10300000  *  146.63500000  * -47.74300000  *
  1017       C         66.54400000  *  144.52100000  * -47.74600000  *
  1018       H         66.03600000  *  143.59600000  * -47.48900000  *
  1019       H         66.92300000  *  144.40200000  * -48.75900000  *
  1020       C         67.76900000  *  144.69200000  * -46.85700000  *
  1021       O         68.07900000  *  145.76500000  * -46.36600000  *
  1022       N         68.52400000  *  143.64200000  * -46.61800000  *
  1023       H         69.38600000  *  143.77400000  * -46.11500000  *
  1024       H         68.27000000  *  142.69800000  * -46.89600000  *
  1025       C         64.63400000  *  145.71600000  * -48.96600000  *
  1026       O         65.15800000  *  145.63400000  * -50.07500000  *
  1027       N         63.30000000  *  145.80300000  * -48.83400000  *
  1028       H         62.89500000  *  145.87300000  * -47.90900000  *
  1029       C         62.40600000  *  145.84500000  * -49.97900000  *
  1030       H         62.94700000  *  145.74800000  * -50.91900000  *
  1031       C         61.36900000  *  144.72100000  * -49.88900000  *
  1032       H         60.76900000  *  144.86100000  * -48.99200000  *
  1033       H         60.74400000  *  144.79800000  * -50.77200000  *
  1034       C         62.03600000  *  143.32400000  * -49.85900000  *
  1035       H         62.67100000  *  143.24000000  * -48.98800000  *
  1036       C         61.00200000  *  142.26000000  * -49.77100000  *
  1037       H         60.24600000  *  142.42800000  * -50.53400000  *
  1038       H         61.44700000  *  141.27100000  * -49.89000000  *
  1039       H         60.52000000  *  142.31900000  * -48.79800000  *
  1040       C         62.89500000  *  143.12600000  * -51.08400000  *
  1041       H         63.82900000  *  143.66800000  * -50.95600000  *
  1042       H         63.12900000  *  142.06900000  * -51.20900000  *
  1043       H         62.39300000  *  143.49200000  * -51.96600000  *
  1044       C         61.76300000  *  147.21800000  * -49.95200000  *
  1045       O         61.15000000  *  147.60200000  * -48.96600000  *
  1046       N         61.89000000  *  147.98500000  * -51.02800000  *
  1047       H         62.38300000  *  147.61600000  * -51.83600000  *
  1048       C         61.44300000  *  149.37700000  * -51.05600000  *
  1049       H         61.05000000  *  149.66900000  * -50.08500000  *
  1050       C         62.61600000  *  150.29800000  * -51.36900000  *
  1051       H         62.95200000  *  150.10700000  * -52.38900000  *
  1052       H         62.24900000  *  151.32000000  * -51.30300000  *
  1053       C         63.80900000  *  150.13800000  * -50.41800000  *
  1054       H         64.23500000  *  149.14200000  * -50.52300000  *
  1055       C         64.85100000  *  151.16200000  * -50.81900000  *
  1056       H         64.49200000  *  152.15600000  * -50.56100000  *
  1057       H         65.77600000  *  150.94500000  * -50.29200000  *
  1058       H         65.03500000  *  151.13300000  * -51.88500000  *
  1059       C         63.46300000  *  150.37400000  * -48.95100000  *
  1060       H         62.84000000  *  149.56200000  * -48.59000000  *
  1061       H         64.37300000  *  150.39200000  * -48.35400000  *
  1062       H         62.93500000  *  151.31900000  * -48.83200000  *
  1063       C         60.32400000  *  149.56400000  * -52.06300000  *
  1064       O         60.42300000  *  149.10400000  * -53.18800000  *
  1065       N         59.26800000  *  150.25600000  * -51.67700000  *
  1066       H         59.36500000  *  150.76300000  * -50.80000000  *
  1067       C         58.08300000  *  150.44700000  * -52.50800000  *
  1068       H         58.17300000  *  149.92400000  * -53.45700000  *
  1069       C         56.81900000  *  149.90600000  * -51.78600000  *
  1070       H         55.94300000  *  150.08700000  * -52.41500000  *
  1071       C         56.95000000  *  148.40400000  * -51.54300000  *
  1072       H         57.75300000  *  148.18300000  * -50.83300000  *
  1073       H         56.01300000  *  148.00400000  * -51.15200000  *
  1074       H         57.15800000  *  147.91500000  * -52.48900000  *
  1075       C         56.64700000  *  150.60600000  * -50.43300000  *
  1076       H         57.48200000  *  150.38000000  * -49.77500000  *
  1077       H         56.60500000  *  151.68300000  * -50.57600000  *
  1078       C         55.37000000  *  150.22200000  * -49.68600000  *
  1079       H         55.48900000  *  149.24800000  * -49.22200000  *
  1080       H         55.17000000  *  150.96500000  * -48.91000000  *
  1081       H         54.52900000  *  150.16800000  * -50.38500000  *
  1082       C         57.87200000  *  151.93000000  * -52.81700000  *
  1083       O         58.38200000  *  152.79400000  * -52.10000000  *
  1084       N         57.14900000  *  152.22000000  * -53.89700000  *
  1085       H         56.70500000  *  151.48200000  * -54.43300000  *
  1086       C         56.84100000  *  153.60200000  * -54.22700000  *
  1087       H         57.16800000  *  154.27800000  * -53.43100000  *
  1088       C         57.50400000  *  154.05300000  * -55.54100000  *
  1089       H         57.21800000  *  155.07000000  * -55.80500000  *
  1090       H         58.58200000  *  154.04400000  * -55.38800000  *
  1091       C         57.19300000  *  153.14600000  * -56.70100000  *
  1092       O         56.13500000  *  152.53500000  * -56.76400000  *
  1093       N         58.11500000  *  153.07200000  * -57.64100000  *
  1094       H         57.83300000  *  152.61700000  * -58.48600000  *
  1095       H         58.88600000  *  153.71500000  * -57.62100000  *
  1096       C         55.33100000  *  153.75800000  * -54.32100000  *
  1097       O         54.57600000  *  152.79900000  * -54.11400000  *
  1098       N         54.88500000  *  154.97100000  * -54.62100000  *
  1099       H         55.52100000  *  155.73600000  * -54.79200000  *
  1100       C         53.46400000  *  155.24700000  * -54.72300000  *
  1101       H         52.92700000  *  154.82600000  * -53.87200000  *
  1102       C         53.20900000  *  156.78000000  * -54.75500000  *
  1103       H         52.16900000  *  156.98000000  * -55.02600000  *
  1104       C         53.47800000  *  157.39700000  * -53.41000000  *
  1105       H         54.52100000  *  157.25500000  * -53.13000000  *
[...]
 1005  H   0.83025
 1006  C   1.06490   0.79422   0.73844   0.79740
 1007  O   1.87747   1.40724   1.59313   1.81773
 1008  N   1.52681   1.35238   1.39141   1.32761
 1009  H   0.65691
 1010  H   0.66333
 1011  C   1.08384   0.75665   0.78138   0.81491
 1012  O   1.88482   1.66406   1.31032   1.73328
 1013  N   1.55157   1.50573   1.20259   1.30330
 1014  H   0.66561
 1015  C   1.07292   0.94684   1.09316   0.82118
 1016  H   0.80381
 1017  C   1.07030   1.04978   1.09114   1.16264
 1018  H   0.83021
 1019  H   0.79602
 1020  C   1.05910   0.80559   0.76615   0.75922
 1021  O   1.87628   1.76868   1.40749   1.61381
 1022  N   1.53149   1.31521   1.19763   1.57993
 1023  H   0.66779
 1024  H   0.65351
 1025  C   1.08766   0.78523   0.72019   0.85281
 1026  O   1.87871   1.76660   1.61001   1.38023
 1027  N   1.54126   1.12564   1.66514   1.18379
 1028  H   0.65406
 1029  C   1.06995   0.96875   0.98007   0.97427
 1030  H   0.81107
 1031  C   1.06726   1.06415   0.99769   1.17263
 1032  H   0.83738
 1033  H   0.84802
 1034  C   1.04100   1.01198   0.94636   1.06215
 1035  H   0.85596
 1036  C   1.04919   1.12577   1.11841   1.17080
 1037  H   0.84484
 1038  H   0.84895
 1039  H   0.86558
 1040  C   1.05151   1.14125   1.17180   1.09908
 1041  H   0.84518
 1042  H   0.85756
 1043  H   0.84974
 1044  C   1.07652   0.74978   0.84320   0.75528
 1045  O   1.87182   1.53838   1.79747   1.44610
 1046  N   1.54593   1.55571   1.17185   1.24736
 1047  H   0.64527
 1048  C   1.06486   0.99005   0.82527   1.09939
 1049  H   0.81464
 1050  C   1.06471   1.02287   1.10504   1.12650
 1051  H   0.84680
 1052  H   0.83911
 1053  C   1.04799   0.96739   1.07280   0.96789
 1054  H   0.86634
 1055  C   1.05392   1.12341   1.13098   1.16589
 1056  H   0.84529
 1057  H   0.84922
 1058  H   0.85968
 1059  C   1.05437   1.17605   1.17710   1.04691
 1060  H   0.84038
 1061  H   0.85221
 1062  H   0.84726
 1063  C   1.07574   0.79778   0.74314   0.81713
 1064  O   1.86882   1.83048   1.62494   1.34269
 1065  N   1.54213   1.19004   1.47112   1.29628
 1066  H   0.64347
 1067  C   1.07589   0.88903   1.00552   1.04167
 1068  H   0.81026
 1069  C   1.06434   1.01616   0.99315   1.01968
 1070  H   0.85006
 1071  C   1.05459   1.18099   1.03399   1.17659
 1072  H   0.84355
 1073  H   0.84521
 1074  H   0.85324
 1075  C   1.05393   1.06882   1.11966   1.03159
 1076  H   0.84688
 1077  H   0.86138
 1078  C   1.05256   1.08984   1.15783   1.13226
 1079  H   0.84825
 1080  H   0.87717
 1081  H   0.84665
 1082  C   1.08642   0.74148   0.88801   0.74179
 1083  O   1.88664   1.56956   1.57733   1.55760
 1084  N   1.54294   1.50721   1.14374   1.33772
 1085  H   0.64328
 1086  C   1.06228   0.97222   0.88442   1.03686
 1087  H   0.80607
 1088  C   1.07259   1.18073   1.12853   1.02381
 1089  H   0.80901
 1090  H   0.80411
 1091  C   1.06080   0.76191   0.77085   0.82347
 1092  O   1.88010   1.35586   1.56938   1.83557
 1093  N   1.53404   1.29752   1.49471   1.27188
 1094  H   0.67183
 1095  H   0.66468
 1096  C   1.08300   0.88526   0.75977   0.71400
 1097  O   1.88786   1.65377   1.46806   1.58768
 1098  N   1.54011   1.14540   1.19742   1.67227
 1099  H   0.66331
 1100  C   1.08562   0.83686   1.05829   1.08290
 1101  H   0.80371
 1102  C   1.08426   0.99160   0.86668   0.88988
 1103  H   0.84697
 1104  C   1.05378   1.18325   1.18056   1.05437
 1105  H   0.84189
 1106  H   0.82401
 1107  H   0.82932
 1108  O   1.84879   1.59240   1.82296   1.34539
 1109  H   0.64231
 1110  C   1.07327   0.78906   0.75562   0.82401
 1111  O   1.87788   1.27984   1.68883   1.84864
 1112  N   1.53328   1.19328   1.53466   1.21095
 1113  H   0.66713
 1114  C   1.05710   1.15380   1.13341   0.89301
 1115  H   0.83548
 1116  H   0.83768
 1117  H   0.83546
 1118  H   0.83971
 1119  C   1.10505   0.75484   0.73537   0.91343
 1120  O   1.88313   1.71076   1.59677   1.48271
 1121  N   1.54487   1.42812   1.34568   1.20819
 1122  H   0.65355
 1123  C   1.08071   0.93117   1.08422   0.93136
 1124  H   0.80956
 1125  C   1.07312   1.07913   0.95392   0.98257
 1126  H   0.84395
 1127  C   1.05811   1.18709   1.08403   1.12925
 1128  H   0.84361
 1129  H   0.84850
 1130  H   0.85209
 1131  C   1.05414   1.07580   1.13445   1.01858
 1132  H   0.85369
 1133  H   0.85472
 1134  C   1.04917   1.14384   1.15110   1.09058
 1135  H   0.84990
 1136  H   0.85975
 1137  H   0.84941
 1138  C   1.07215   0.84171   0.73687   0.77777
 1139  O   1.87775   1.89039   1.52079   1.39085
 1140  N   1.54467   1.10300   1.52630   1.33525
 1141  H   0.63244
 1142  C   1.06991   0.84571   1.05418   1.03755
 1143  H   0.81833
 1144  C   1.06008   1.09249   1.04572   1.09653
 1145  H   0.83552
 1146  H   0.84672
 1147  C   1.05101   1.08522   1.04425   1.07730
 1148  H   0.85074
 1149  H   0.84448
 1150  C   1.05940   1.08207   1.05432   1.09873
 1151  H   0.84107
 1152  H   0.83193
 1153  C   1.07866   1.02181   0.99759   1.07379
 1154  H   0.81241
 1155  H   0.83379
 1156  N   1.46079   1.23190   1.23214   1.25882
 1157  H   0.68921
 1158  H   0.69979
 1159  H   0.68799
 1160  C   1.07839   0.77980   0.75036   0.82547
 1161  O   1.88113   1.77270   1.69301   1.29078
 1162  N   1.54480   1.32886   1.42545   1.23084
 1163  H   0.64041
 1164  C   1.07013   0.91852   0.95764   1.02899
 1165  H   0.83218
 1166  C   1.06271   1.10009   1.01957   1.13299
 1167  H   0.83517
 1168  H   0.84514
 1169  C   1.05369   1.07064   0.96108   0.96336
 1170  H   0.85954
 1171  C   1.06223   1.16607   1.13939   1.09236
 1172  H   0.85201
 1173  H   0.84926
 1174  H   0.85269
 1175  C   1.05740   1.18265   1.13698   1.08887
 1176  H   0.85347
 1177  H   0.84825
 1178  H   0.85441
 1179  C   1.08459   0.79169   0.79944   0.75948
 1180  O   1.88077   1.63420   1.59893   1.53931
 1181  N   1.54333   1.36407   1.44003   1.16001
 1182  H   0.64533
 1183  C   1.06753   0.91041   0.92823   1.05146
 1184  H   0.82678
 1185  C   1.05950   1.16550   1.08457   1.15299
 1186  H   0.82163
 1187  H   0.83392
 1188  H   0.82640
 1189  C   1.08885   0.78550   0.78573   0.74590
 1190  O   1.87163   1.83773   1.36193   1.60148
 1191  N   1.54612   1.17619   1.32416   1.48957
 1192  H   0.67093
 1193  C   1.07472   0.88810   1.07467   0.92875
 1194  H   0.82137
 1195  C   1.07797   1.14849   1.17234   1.01646
 1196  H   0.80682
 1197  H   0.83464
 1198  C   1.07074   0.73285   0.73704   0.69335
 1199  O   1.88678   1.65282   1.47610   1.70965
 1200  O   1.87163   1.81400   1.44645   1.74447
 1201  C   1.08890   0.81803   0.79568   0.74794
 1202  O   1.88700   1.28804   1.79924   1.57761
 1203  N   1.56623   1.29141   1.17044   1.53644
 1204  H   0.68162
 1205  C   1.07998   1.02206   0.91645   0.95334
 1206  H   0.83911
 1207  C   1.05576   1.07815   1.20253   0.96286
 1208  H   0.81433
 1209  H   0.81886
 1210  C   1.07458   0.97379   0.97770   0.97048
 1211  C   1.09005   1.04120   1.04107   1.01392
 1212  H   0.83945
 1213  C   1.08867   0.98536   1.06190   1.01057
 1214  H   0.84208
 1215  C   1.08754   1.05962   0.99145   1.03184
 1216  H   0.84756
 1217  C   1.08945   1.03688   1.03639   0.98895
 1218  H   0.83141
 1219  C   1.08723   0.98672   1.06379   1.02396
 1220  H   0.83916
 1221  C   1.08864   0.80290   0.77366   0.76413
 1222  O   1.88522   1.44420   1.55957   1.71438
 1223  N   1.53928   1.41491   1.43665   1.13564
 1224  H   0.68349
 1225  C   1.06848   0.98863   1.06744   0.98162
 1226  H   0.81294
 1227  H   0.80721
 1228  C   1.07933   0.82851   0.77925   0.70658
 1229  O   1.87679   1.84123   1.32510   1.61312
 1230  N   1.55753   1.29732   1.23272   1.44613
 1231  H   0.67363
 1232  C   1.07737   0.89836   1.03237   0.96672
 1233  H   0.83477
 1234  C   1.06795   1.11184   0.95124   1.17647
 1235  H   0.83575
 1236  H   0.82976
 1237  C   1.05171   1.03334   0.96077   1.00956
 1238  H   0.86340
 1239  C   1.05599   1.16795   1.06755   1.16428
 1240  H   0.85757
 1241  H   0.84495
 1242  H   0.85572
 1243  C   1.05565   1.17086   1.18865   1.04760
 1244  H   0.84146
 1245  H   0.84265
 1246  H   0.85744
 1247  C   1.09494   0.85712   0.76479   0.72392
 1248  O   1.88111   1.32540   1.78563   1.59448
 1249  N   1.58225   1.28162   1.23417   1.52167
 1250  H   0.66071
 1251  C   1.06825   0.96377   0.99684   0.95522
 1252  H   0.83618
 1253  C   1.05862   1.14010   1.09755   1.17421
 1254  H   0.84418
 1255  H   0.81077
 1256  H   0.81035
 1257  C   1.07600   0.83435   0.75165   0.78119
 1258  O   1.88388   1.50016   1.59992   1.64961
 1259  N   1.54297   1.31116   1.51248   1.14424
 1260  H   0.67593
 1261  C   1.06247   0.92450   1.14574   1.10580
 1262  H   0.82657
 1263  H   0.82985
 1264  H   0.83906
 1265  H   0.84189
 1266  C   1.10456   0.72509   0.79425   0.87712
 1267  O   1.88383   1.53333   1.36208   1.88325
 1268  N   1.54269   1.48706   1.35101   1.14840
 1269  H   0.67725
 1270  C   1.07285   1.11773   0.96742   0.82198
 1271  H   0.80335
 1272  C   1.05791   1.09158   1.02704   1.14971
 1273  H   0.83446
 1274  H   0.82234
 1275  C   1.06417   0.97669   0.94919   0.96732
 1276  C   1.08256   1.02006   0.99377   1.05800
 1277  H   0.84067
 1278  C   1.08200   1.04734   1.02775   0.99894
 1279  H   0.84608
 1280  C   1.08101   1.00781   1.05585   1.02617
 1281  H   0.85067
 1282  C   1.08037   1.02458   1.00359   1.05514
 1283  H   0.85519
 1284  C   1.08317   1.05762   1.02535   0.99525
 1285  H   0.83999
 1286  C   1.08060   0.76588   0.78599   0.79867
 1287  O   1.88386   1.53921   1.68043   1.53375
 1288  N   1.53688   1.17705   1.34790   1.43211
 1289  H   0.67099
 1290  C   1.05821   1.14184   0.97743   0.99748
 1291  H   0.81371
 1292  H   0.78679
 1293  C   1.07320   0.78182   0.75109   0.80214
 1294  O   1.87183   1.55661   1.40021   1.83988
 1295  N   1.53459   1.40623   1.37152   1.17568
 1296  H   0.64801
 1297  C   1.07485   1.00356   1.20092   0.87841
 1298  H   0.80921
 1299  H   0.79332
 1300  C   1.08116   0.77434   0.74571   0.80720
 1301  O   1.88288   1.52188   1.53288   1.73133
 1302  N   1.56525   1.44478   1.16711   1.26722
 1303  C   1.07055   1.06957   0.86723   1.05586
 1304  H   0.83625
 1305  H   0.83898
 1306  C   1.05732   1.04581   1.13969   1.05918
 1307  H   0.84673
 1308  H   0.80368
 1309  C   1.06103   1.08272   0.98325   1.17204
 1310  H   0.83528
 1311  H   0.81963
 1312  C   1.07350   1.05218   1.00119   0.86760
 1313  H   0.81340
 1314  C   1.08829   0.76339   0.76828   0.82865
 1315  O   1.88393   1.42710   1.43563   1.88333
 1316  N   1.54314   1.40353   1.48384   1.11753
 1317  H   0.64354
 1318  C   1.08218   1.04964   1.11406   0.89129
 1319  H   0.80104
 1320  H   0.78755
 1321  C   1.08825   0.82549   0.73029   0.77832
 1322  O   1.88492   1.70324   1.72962   1.32954
 1323  N   1.55105   1.23218   1.41128   1.34482
 1324  H   0.68803
 1325  C   1.07565   0.86034   1.06407   0.97841
 1326  H   0.82196
 1327  C   1.05960   1.16884   1.07554   0.97652
 1328  H   0.83478
 1329  H   0.83904
 1330  C   1.05817   1.13850   1.07479   1.02367
 1331  H   0.82464
 1332  H   0.87160
 1333  C   1.06374   1.08745   1.09997   0.78145
 1334  H   0.85042
 1335  H   0.81930
 1336  N   1.53280   1.62697   1.28990   1.09338
 1337  H   0.64878
 1338  C   0.97598   0.83627   0.80291   0.79451
 1339  N   1.50144   1.56336   1.25850   1.24813
 1340  H   0.67463
 1341  H   0.62641
 1342  N   1.50406   1.55701   1.35351   1.14121
 1343  H   0.64459
 1344  H   0.63727
 1345  C   1.08272   0.75715   0.77364   0.84405
 1346  O   1.88771   1.48017   1.64670   1.56770
 1347  N   1.54262   1.54575   1.19730   1.23938
 1348  H   0.67287
 1349  C   1.08979   1.00046   1.01014   0.92106
 1350  H   0.80186
 1351  C   1.08622   0.93214   0.92712   0.87731
 1352  H   0.85102
 1353  C   1.05852   1.09744   1.12849   1.20541
 1354  H   0.82424
 1355  H   0.83344
 1356  H   0.83081
 1357  O   1.84302   1.58267   1.64065   1.56957
 1358  H   0.62649
 1359  C   1.07902   0.81336   0.79147   0.76303
 1360  O   1.88746   1.53697   1.79102   1.36962
 1361  N   1.55256   1.32715   1.29594   1.37688
 1362  H   0.65275
 1363  C   1.07402   0.98864   0.92718   0.99332
 1364  H   0.81739
 1365  C   1.05790   1.09563   1.06859   1.08758
 1366  H   0.84085
 1367  H   0.82572
 1368  C   1.06140   0.97208   0.97481   1.05746
 1369  C   1.08266   0.97279   1.07846   0.99072
 1370  H   0.84495
 1371  C   1.08048   1.07774   0.99572   1.02354
 1372  H   0.81400
 1373  C   1.06637   0.82763   0.89529   0.91059
 1374  O   1.84135   1.46793   1.53988   1.69608
 1375  H   0.63483
 1376  C   1.07395   0.99041   1.09235   1.06998
 1377  H   0.84722
 1378  C   1.08184   1.06422   0.99891   0.99421
 1379  H   0.85876
 1380  C   1.08208   0.77641   0.73414   0.82114
 1381  O   1.88477   1.39039   1.55603   1.82925
 1382  N   1.55035   1.20050   1.60178   1.14814
 1383  H   0.66114
 1384  C   1.08717   1.11705   1.03441   0.83749
 1385  H   0.82132
 1386  C   1.08253   0.83212   0.89095   1.00024
 1387  H   0.86867
 1388  C   1.05719   1.09867   1.14104   1.18948
 1389  H   0.83081
 1390  H   0.84593
 1391  H   0.84157
 1392  O   1.84698   1.32397   1.76640   1.66690
 1393  H   0.61646
 1394  C   1.08202   0.82835   0.76393   0.79211
 1395  O   1.88735   1.29186   1.70651   1.67692
 1396  N   1.54290   1.22795   1.27108   1.47579
 1397  H   0.64943
 1398  C   1.07066   0.98412   1.04037   1.07613
 1399  H   0.84407
 1400  H   0.80896
 1401  C   1.07022   0.85080   0.72027   0.75163
 1402  O   1.88501   1.70080   1.45743   1.55924
 1403  N   1.55348   1.14754   1.51375   1.33245
 1404  H   0.68015
 1405  C   1.07072   0.82922   0.98754   1.12932
 1406  H   0.81415
 1407  C   1.05312   1.16380   0.98897   1.05127
 1408  H   0.84006
 1409  H   0.83554
 1410  C   1.05986   1.20558   1.01210   1.13879
 1411  H   0.84360
 1412  H   0.82606
 1413  C   1.06662   0.72289   0.72058   0.72909
 1414  O   1.88759   1.46994   1.82235   1.63742
 1415  O   1.88490   1.51962   1.58582   1.81495
 1416  C   1.08680   0.77107   0.86266   0.75455
 1417  O   1.88732   1.64850   1.65316   1.40983
 1418  N   1.54578   1.31029   1.19190   1.47840
 1419  H   0.65302
 1420  C   1.07214   1.06264   0.88128   1.00767
 1421  H   0.84394
 1422  C   1.05447   1.01867   1.03217   0.97079
 1423  H   0.83589
 1424  C   1.05592   1.17741   1.04890   1.19323
 1425  H   0.84561
 1426  H   0.83591
 1427  H   0.83789
 1428  C   1.05458   1.18125   1.16764   1.06159
 1429  H   0.84062
 1430  H   0.83995
 1431  H   0.85219
 1432  C   1.07557   0.77104   0.73159   0.84201
 1433  O   1.88366   1.36348   1.63757   1.76935
 1434  N   1.53827   1.27321   1.47287   1.21106
 1435  H   0.66902
 1436  C   1.07705   1.00701   1.05451   0.86790
 1437  H   0.82273
 1438  C   1.06061   1.02682   1.01606   0.97678
 1439  H   0.84065
 1440  C   1.05418   1.18408   1.09811   1.12133
 1441  H   0.84115
 1442  H   0.84091
 1443  H   0.85075
 1444  C   1.05740   1.18954   1.16690   1.05261
 1445  H   0.84591
 1446  H   0.83583
 1447  H   0.83881
 1448  C   1.08140   0.80663   0.78620   0.75102
 1449  O   1.88310   1.81181   1.47386   1.46077
 1450  N   1.53600   1.23672   1.43118   1.31653
 1451  H   0.66411
 1452  C   1.07957   0.90440   0.96828   1.14814
 1453  H   0.80528
 1454  C   1.07973   0.93517   0.82441   0.98329
 1455  H   0.86616
 1456  C   1.05746   1.09519   1.13589   1.19617
 1457  H   0.82491
 1458  H   0.82219
 1459  H   0.84140
 1460  O   1.84755   1.47795   1.49399   1.78190
 1461  H   0.64855
 1462  C   1.07072   0.75401   0.82649   0.79815
 1463  O   1.88062   1.50665   1.88249   1.36381
 1464  N   1.53716   1.55062   1.12172   1.29445
 1465  H   0.65722
 1466  C   1.05406   1.16765   0.87318   1.13555
 1467  H   0.83032
 1468  H   0.83722
 1469  H   0.85145
 1470  H   0.82725
 1471  C   1.10848   0.72190   0.77567   0.90299
 1472  O   1.87916   1.50035   1.39726   1.89104
 1473  N   1.54805   1.50779   1.35866   1.13680
 1474  H   0.67045
 1475  C   1.07819   1.08300   1.04075   0.80196
 1476  H   0.80370
 1477  C   1.05903   1.13433   0.99966   1.10168
 1478  H   0.81855
 1479  H   0.82221
 1480  C   1.06603   0.97580   0.99271   1.00498
 1481  C   1.08223   0.99078   1.02514   1.00496
 1482  H   0.83767
 1483  C   1.07634   1.10498   1.04974   1.06617
 1484  H   0.82049
 1485  C   1.07248   0.88654   0.88220   0.88007
 1486  O   1.83869   1.35491   1.61292   1.73277
 1487  H   0.61924
 1488  C   1.07859   0.98853   1.09947   1.09654
 1489  H   0.82125
 1490  C   1.08813   1.07873   0.97894   0.96921
 1491  H   0.83495
 1492  C   1.08087   0.79999   0.76891   0.79198
 1493  O   1.88631   1.81389   1.69948   1.28043
 1494  N   1.53471   1.25584   1.50894   1.18460
 1495  H   0.67085
 1496  C   1.06143   0.92036   1.08953   1.16674
 1497  H   0.83447
 1498  H   0.82973
 1499  H   0.83857
 1500  H   0.82502
 1501  C   1.10798   0.78631   0.88383   0.71626
 1502  O   1.88013   1.43034   1.87072   1.50908
 1503  N   1.55064   1.37513   1.18540   1.44525
 1504  H   0.64435
 1505  C   1.07868   0.96566   0.86312   1.12893
 1506  H   0.81504
 1507  C   1.05975   0.97996   0.99675   1.07642
 1508  H   0.84642
 1509  C   1.05205   1.15821   1.06255   1.17604
 1510  H   0.84450
 1511  H   0.84461
 1512  H   0.84172
 1513  C   1.04779   0.99988   1.12968   1.08507
 1514  H   0.86662
 1515  H   0.85359
 1516  C   1.04900   1.11609   1.12965   1.14931
 1517  H   0.85861
 1518  H   0.85750
 1519  H   0.84125
 1520  C   1.07238   0.85963   0.73791   0.75018
 1521  O   1.87626   1.57614   1.55610   1.67373
 1522  N   1.54215   1.18493   1.41749   1.37458
 1523  H   0.66208
 1524  C   1.07135   0.87895   1.16322   1.10821
 1525  H   0.84318
 1526  H   0.83235
 1527  H   0.83426
 1528  H   0.82782
 1529  C   1.10754   0.84812   0.73310   0.82094
 1530  O   1.88536   1.81630   1.62612   1.36643
 1531  N   1.53781   1.25351   1.40326   1.30545
 1532  H   0.64777
 1533  C   1.05912   0.89163   1.04060   1.02415
 1534  H   0.81959
 1535  C   1.06063   1.03217   1.11447   1.11496
 1536  H   0.82474
 1537  H   0.84724
 1538  C   1.04445   0.99033   0.96349   1.05958
 1539  H   0.88056
 1540  C   1.05455   1.16313   1.06797   1.18079
 1541  H   0.83801
 1542  H   0.84780
 1543  H   0.85387
 1544  C   1.05254   1.12353   1.17215   1.10875
 1545  H   0.85761
 1546  H   0.84739
 1547  H   0.84101
 1548  C   1.07859   0.72941   0.86472   0.77485
 1549  O   1.88187   1.57565   1.45138   1.73521
 1550  N   1.53999   1.57292   1.21252   1.19372
 1551  H   0.66150
 1552  C   1.07187   1.01978   0.93478   0.96149
 1553  H   0.81167
 1554  C   1.05669   1.17070   1.07940   0.99187
 1555  H   0.82423
 1556  H   0.82621
 1557  C   1.05682   1.12998   1.08791   1.03621
 1558  H   0.85317
 1559  H   0.82420
 1560  C   1.06363   1.15821   0.94492   0.90199
 1561  H   0.81633
 1562  H   0.83545
 1563  N   1.52415   1.16147   1.42470   1.39818
 1564  H   0.63976
 1565  C   0.99140   0.79135   0.81235   0.81838
 1566  N   1.51720   1.11635   1.46810   1.48666
 1567  H   0.65569
 1568  H   0.63930
 1569  N   1.50867   1.25119   1.39994   1.41139
 1570  H   0.64204
 1571  H   0.64050
 1572  C   1.08175   0.87185   0.77136   0.74447
 1573  O   1.88737   1.60863   1.59994   1.52885
 1574  N   1.53972   1.17468   1.27135   1.51537
 1575  H   0.65702
 1576  C   1.07439   0.85661   1.08607   1.03883
 1577  H   0.82187
 1578  C   1.06136   1.16414   1.09820   0.98389
 1579  H   0.84194
 1580  H   0.83868
 1581  C   1.04767   1.08178   0.96057   0.94823
 1582  H   0.86913
 1583  C   1.05596   1.17114   1.16294   1.07749
 1584  H   0.85498
 1585  H   0.86152
 1586  H   0.84641
 1587  C   1.05684   1.15839   1.09191   1.15811
 1588  H   0.85113
 1589  H   0.86101
 1590  H   0.84446
 1591  C   1.08292   0.71482   0.76185   0.70278
 1592  O   1.88400   1.46762   1.86972   1.62354
 1593  O   1.88767   1.54698   1.59374   1.80268

 **********************
 *                    *
 * JOB ENDED NORMALLY *
 *                    *
 **********************



 TOTAL JOB TIME:            39.93 SECONDS

 == MOPAC DONE ==
