 *******************************************************************************
 **                                                                           **
 **                              MOPAC v23.2.2                                **
 **                                                                           **
 *******************************************************************************
 **          Digital Object Identifier (DOI): 10.5281/zenodo.6511958          **
 **    Visit the DOI location for information on how to cite this program.    **
 *******************************************************************************

                              PM7 CALCULATION RESULTS

 *******************************************************************************
 *  CALCULATION DONE: (MAX THREADS = 12)             Tue Jan 27 15:59:46 2026  *
 *  PM7        - The PM7 Hamiltonian to be used
 *  MOZYME     - USE LOCALIZED M.O.s IN SOLVING THE SCF EQUATIONS
 *
 *
 *
 *                 CHARGE ON SYSTEM = +2
 *
 *
 *
 *  EPS=78.4   - USE ANDREAS KLAMT'S COSMO IMPLICIT SOLVATION MODEL
 *  1SCF       - DO 1 SCF AND THEN STOP 
 *  T=         - A TIME OF 172800.0 SECONDS REQUESTED
 *  DUMP=N     - RESTART FILE WRITTEN EVERY 7200.0 SECONDS REQUESTED
 *******************************************************************************
PM7 1SCF MOZYME CHARGE=2 EPS=78.4


   ATOM   CHEMICAL          X               Y               Z
  NUMBER   SYMBOL      (ANGSTROMS)     (ANGSTROMS)     (ANGSTROMS)

     1       H         71.69100000  *  165.23700000  * -45.36000000  *
     2       C         70.72700000  *  165.64400000  * -45.02500000  *
     3       O         70.67100000  *  166.69300000  * -44.40000000  *
     4       N         69.64800000  *  164.94600000  * -45.35400000  *
     5       H         69.74300000  *  164.08600000  * -45.86500000  *
     6       C         68.31800000  *  165.37700000  * -44.95100000  *
     7       H         68.30400000  *  166.44500000  * -44.75000000  *
     8       C         67.27900000  *  165.08100000  * -46.05800000  *
     9       H         67.27200000  *  164.02200000  * -46.29800000  *
    10       C         65.89200000  *  165.46600000  * -45.59200000  *
    11       H         65.46400000  *  166.22900000  * -46.24500000  *
    12       H         65.23700000  *  164.60600000  * -45.62700000  *
    13       H         65.87600000  *  165.89500000  * -44.58400000  *
    14       C         67.63700000  *  165.85600000  * -47.31700000  *
    15       H         68.59400000  *  165.52900000  * -47.70800000  *
    16       H         66.87900000  *  165.66900000  * -48.07700000  *
    17       H         67.68800000  *  166.92100000  * -47.10100000  *
    18       C         67.91500000  *  164.66400000  * -43.65700000  *
    19       O         67.55300000  *  165.30600000  * -42.67600000  *
    20       N         67.98400000  *  163.33800000  * -43.65800000  *
    21       H         68.28400000  *  162.85200000  * -44.48600000  *
    22       C         67.62300000  *  162.54400000  * -42.48700000  *
    23       H         67.90600000  *  163.07600000  * -41.58100000  *
    24       C         66.12800000  *  162.23500000  * -42.45900000  *
    25       H         65.92600000  *  161.47400000  * -43.20900000  *
    26       H         65.88500000  *  161.80700000  * -41.48800000  *
    27       C         65.21300000  *  163.39800000  * -42.74000000  *
    28       H         65.33100000  *  164.15700000  * -41.96400000  *
    29       H         65.45900000  *  163.81400000  * -43.69700000  *
    30       C         63.76600000  *  162.97200000  * -42.82400000  *
    31       O         63.44700000  *  162.11400000  * -43.67900000  *
    32       O         62.94800000  *  163.49400000  * -42.03400000  *
    33       C         68.34700000  *  161.22200000  * -42.57700000  *
    34       O         68.73000000  *  160.78800000  * -43.66100000  *
    35       N         68.52400000  *  160.57500000  * -41.43500000  *
    36       H         68.03000000  *  160.89100000  * -40.60600000  *
    37       C         69.17300000  *  159.28200000  * -41.42100000  *
    38       H         69.95100000  *  159.22100000  * -42.17800000  *
    39       C         69.75600000  *  159.01000000  * -40.03200000  *
    40       H         70.21900000  *  159.94300000  * -39.71800000  *
    41       H         68.96300000  *  158.79100000  * -39.31600000  *
    42       C         70.79800000  *  157.89600000  * -39.98300000  *
    43       H         70.31100000  *  156.94100000  * -40.17400000  *
    44       H         71.53800000  *  158.07300000  * -40.76900000  *
    45       C         71.50100000  *  157.83200000  * -38.61800000  *
    46       H         70.74900000  *  157.59000000  * -37.86000000  *
    47       H         72.23100000  *  157.01800000  * -38.63800000  *
    48       C         72.18600000  *  159.16200000  * -38.26900000  *
    49       H         72.83200000  *  159.42500000  * -39.10900000  *
    50       H         71.41200000  *  159.93100000  * -38.15600000  *
    51       N         73.00000000  *  159.10500000  * -37.02500000  *
    52       H         73.70000000  *  158.37000000  * -37.07400000  *
    53       H         73.43800000  *  159.98800000  * -36.79300000  *
    54       H         72.39100000  *  158.85400000  * -36.25100000  *
    55       C         68.06200000  *  158.28700000  * -41.74800000  *
    56       O         67.16300000  *  158.08100000  * -40.94600000  *
    57       N         68.04400000  *  157.72800000  * -42.96300000  *
    58       H         68.84800000  *  157.87700000  * -43.55300000  *
    59       C         67.01900000  *  156.75700000  * -43.40900000  *
    60       H         66.05000000  *  157.25900000  * -43.42900000  *
    61       C         67.31700000  *  156.23200000  * -44.83500000  *
    62       H         68.39400000  *  156.11400000  * -44.94600000  *
    63       C         66.65900000  *  154.87500000  * -45.13100000  *
    64       H         65.58500000  *  154.93600000  * -44.95000000  *
    65       H         66.83000000  *  154.60300000  * -46.16400000  *
    66       H         67.09000000  *  154.08300000  * -44.51800000  *
    67       C         66.82600000  *  157.26400000  * -45.86100000  *
    68       H         65.73500000  *  157.26500000  * -45.88900000  *
    69       H         67.14700000  *  158.23900000  * -45.51400000  *
    70       C         67.36600000  *  157.05000000  * -47.28300000  *
    71       H         66.94300000  *  156.15300000  * -47.72800000  *
    72       H         67.09500000  *  157.90000000  * -47.90600000  *
    73       H         68.45000000  *  156.96400000  * -47.26400000  *
    74       C         66.88400000  *  155.60400000  * -42.41700000  *
    75       O         65.77800000  *  155.25700000  * -41.99900000  *
    76       N         68.01700000  *  155.00300000  * -42.05900000  *
    77       H         68.89900000  *  155.34500000  * -42.42400000  *
    78       C         68.04100000  *  153.82300000  * -41.21600000  *
    79       H         67.55000000  *  154.05200000  * -40.26900000  *
    80       H         67.49400000  *  153.01700000  * -41.70700000  *
    81       C         69.44800000  *  153.33300000  * -40.92600000  *
    82       O         70.43700000  *  153.73000000  * -41.55000000  *
    83       N         69.51000000  *  152.44200000  * -39.95100000  *
    84       H         68.64400000  *  152.15500000  * -39.51600000  *
    85       C         70.73400000  *  151.82300000  * -39.47300000  *
    86       H         71.57000000  *  152.50400000  * -39.63800000  *
    87       C         70.58900000  *  151.59500000  * -37.96100000  *
    88       H         69.75300000  *  150.92100000  * -37.77100000  *
    89       H         71.50600000  *  151.14200000  * -37.61000000  *
    90       C         70.38800000  *  152.90900000  * -37.18200000  *
    91       H         71.23700000  *  153.56700000  * -37.38800000  *
    92       H         69.48700000  *  153.41500000  * -37.53500000  *
    93       C         70.25300000  *  152.68600000  * -35.66700000  *
    94       O         69.36000000  *  151.92200000  * -35.23400000  *
    95       O         71.00200000  *  153.32400000  * -34.89300000  *
    96       C         70.98500000  *  150.54100000  * -40.28500000  *
    97       O         70.24200000  *  149.56300000  * -40.16900000  *
    98       N         71.95000000  *  150.59100000  * -41.20900000  *
    99       H         72.58600000  *  151.37900000  * -41.21700000  *
   100       C         72.05600000  *  149.64600000  * -42.32400000  *
   101       H         71.05300000  *  149.39100000  * -42.66900000  *
   102       H         72.56800000  *  150.14500000  * -43.14800000  *
   103       C         72.80100000  *  148.34000000  * -42.02700000  *
   104       O         73.25300000  *  148.07400000  * -40.91400000  *
   105       N         72.96300000  *  147.52100000  * -43.06900000  *
   106       H         72.52400000  *  147.77300000  * -43.95000000  *
   107       C         73.71900000  *  146.25500000  * -43.04400000  *
   108       H         73.37700000  *  145.65900000  * -42.19700000  *
   109       C         73.47200000  *  145.44600000  * -44.32700000  *
   110       H         74.16300000  *  144.60300000  * -44.36600000  *
   111       C         72.04500000  *  144.90700000  * -44.35500000  *
   112       H         71.32900000  *  145.72200000  * -44.46400000  *
   113       H         71.93900000  *  144.21200000  * -45.18700000  *
   114       H         71.85600000  *  144.36400000  * -43.43300000  *
   115       O         73.67600000  *  146.26600000  * -45.45100000  *
   116       H         73.24500000  *  145.82300000  * -46.21600000  *
   117       C         75.22400000  *  146.44300000  * -42.87200000  *
   118       O         75.82800000  *  145.67900000  * -42.12600000  *
   119       N         75.81500000  *  147.45300000  * -43.52400000  *
   120       H         75.22900000  *  147.96900000  * -44.16200000  *
   121       C         77.27100000  *  147.69300000  * -43.57700000  *
   122       H         77.75800000  *  147.10700000  * -42.79600000  *
   123       C         77.82100000  *  147.21500000  * -44.93500000  *
   124       H         77.47400000  *  147.89700000  * -45.71000000  *
   125       H         78.91100000  *  147.27100000  * -44.91400000  *
   126       C         77.44600000  *  145.79800000  * -45.31900000  *
   127       C         77.76600000  *  144.73700000  * -44.45300000  *
   128       H         78.28000000  *  144.93000000  * -43.52000000  *
   129       C         77.39700000  *  143.42600000  * -44.78800000  *
   130       H         77.62500000  *  142.61900000  * -44.11200000  *
   131       C         76.73400000  *  143.16200000  * -46.00400000  *
   132       O         76.45500000  *  141.87900000  * -46.34800000  *
   133       H         77.07900000  *  141.29300000  * -45.89100000  *
   134       C         76.40400000  *  144.22600000  * -46.86800000  *
   135       H         75.87400000  *  144.03300000  * -47.78500000  *
   136       C         76.76500000  *  145.54300000  * -46.52600000  *
   137       H         76.51400000  *  146.35600000  * -47.19000000  *
   138       C         77.67500000  *  149.15700000  * -43.32400000  *
   139       O         78.77900000  *  149.56600000  * -43.68000000  *
   140       N         76.78800000  *  149.96200000  * -42.73400000  *
   141       H         75.90500000  *  149.57700000  * -42.43000000  *
   142       C         77.01300000  *  151.38500000  * -42.47100000  *
   143       H         77.59900000  *  151.49900000  * -41.56100000  *
   144       H         77.58500000  *  151.80800000  * -43.28700000  *
   145       C         75.70700000  *  152.16500000  * -42.31100000  *
   146       O         74.65800000  *  151.56600000  * -42.06100000  *
   147       N         75.75500000  *  153.49500000  * -42.44900000  *
   148       H         76.58800000  *  153.89400000  * -42.85900000  *
   149       C         74.59200000  *  154.32600000  * -42.21200000  *
   150       H         73.82600000  *  153.78000000  * -41.65800000  *
   151       C         74.95900000  *  155.54800000  * -41.37000000  *
   152       H         75.70700000  *  156.13900000  * -41.89300000  *
   153       C         73.73100000  *  156.40900000  * -41.13300000  *
   154       H         72.94300000  *  155.80300000  * -40.68200000  *
   155       H         73.98600000  *  157.21200000  * -40.45000000  *
   156       H         73.36800000  *  156.84900000  * -42.06500000  *
   157       C         75.54500000  *  155.09600000  * -40.05300000  *
   158       H         76.46000000  *  154.52800000  * -40.19800000  *
   159       H         75.77700000  *  155.95300000  * -39.42300000  *
   160       H         74.80500000  *  154.48400000  * -39.53200000  *
   161       C         74.01900000  *  154.79200000  * -43.53700000  *
   162       O         74.76100000  *  155.18400000  * -44.43700000  *
   163       N         72.69700000  *  154.64800000  * -43.67400000  *
   164       H         72.17000000  *  154.30800000  * -42.87700000  *
   165       C         71.90900000  *  155.09600000  * -44.82800000  *
   166       H         72.56100000  *  155.14500000  * -45.69800000  *
   167       C         70.74300000  *  154.13200000  * -45.15100000  *
   168       H         69.90100000  *  154.34900000  * -44.49400000  *
   169       C         70.29300000  *  154.33700000  * -46.60200000  *
   170       H         71.09100000  *  154.05100000  * -47.28800000  *
   171       H         69.41300000  *  153.72600000  * -46.80700000  *
   172       H         70.03800000  *  155.38100000  * -46.77600000  *
   173       C         71.07400000  *  152.64800000  * -44.96400000  *
   174       H         71.94500000  *  152.38300000  * -45.55600000  *
   175       H         71.27000000  *  152.43400000  * -43.91300000  *
   176       H         70.22200000  *  152.04300000  * -45.27500000  *
   177       C         71.35000000  *  156.48800000  * -44.53700000  *
   178       O         70.62200000  *  156.64600000  * -43.55400000  *
   179       N         71.62500000  *  157.49000000  * -45.37400000  *
   180       H         72.23900000  *  157.32200000  * -46.16900000  *
   181       C         71.01800000  *  158.79600000  * -45.21900000  *
   182       H         70.37900000  *  158.84300000  * -44.33800000  *
   183       C         72.10000000  *  159.86100000  * -45.06900000  *
   184       H         72.79900000  *  159.78100000  * -45.90500000  *
   185       H         71.63400000  *  160.84400000  * -45.14300000  *
   186       C         72.87100000  *  159.84300000  * -43.76800000  *
   187       C         72.34700000  *  160.43100000  * -42.61900000  *
   188       H         71.37700000  *  160.90600000  * -42.66800000  *
   189       C         73.06400000  *  160.45200000  * -41.42500000  *
   190       H         72.63300000  *  160.94600000  * -40.56800000  *
   191       C         74.33000000  *  159.87400000  * -41.37100000  *
   192       O         75.04700000  *  159.90100000  * -40.18700000  *
   193       H         74.69700000  *  160.54100000  * -39.56800000  *
   194       C         74.87500000  *  159.27800000  * -42.50300000  *
   195       H         75.78500000  *  158.71900000  * -42.41900000  *
   196       C         74.14000000  *  159.26700000  * -43.69600000  *
   197       H         74.51800000  *  158.73300000  * -44.56500000  *
   198       C         70.16700000  *  159.17400000  * -46.42900000  *
   199       O         70.41800000  *  158.72400000  * -47.55600000  *
   200       N         69.03100000  *  159.83600000  * -46.21300000  *
   201       H         68.84500000  *  160.14500000  * -45.26600000  *
   202       C         68.29500000  *  160.51200000  * -47.28300000  *
   203       H         68.28700000  *  159.91000000  * -48.19400000  *
   204       C         66.84900000  *  160.83600000  * -46.85100000  *
   205       H         66.33000000  *  159.91500000  * -46.59900000  *
   206       H         66.86500000  *  161.47000000  * -45.96300000  *
   207       C         66.04200000  *  161.53000000  * -47.96100000  *
   208       H         66.51900000  *  162.47200000  * -48.23400000  *
   209       H         66.01200000  *  160.88200000  * -48.83800000  *
   210       C         64.60900000  *  161.81200000  * -47.48200000  *
   211       H         64.14700000  *  160.87900000  * -47.15500000  *
   212       H         64.64600000  *  162.49800000  * -46.63500000  *
   213       C         63.77000000  *  162.42600000  * -48.61000000  *
   214       H         64.29500000  *  163.30400000  * -49.00000000  *
   215       H         63.69200000  *  161.69200000  * -49.42100000  *
   216       N         62.41300000  *  162.81600000  * -48.14200000  *
   217       H         62.46100000  *  163.51500000  * -47.41400000  *
   218       H         61.86500000  *  163.21100000  * -48.89500000  *
   219       H         61.90400000  *  162.02500000  * -47.77400000  *
   220       C         69.10000000  *  161.76700000  * -47.51000000  *
   221       O         69.32900000  *  162.50100000  * -46.55300000  *
   222       N         69.55500000  *  162.00600000  * -48.72500000  *
   223       H         69.34400000  *  161.34200000  * -49.46700000  *
   224       C         70.34900000  *  163.18200000  * -49.01700000  *
   225       H         70.22500000  *  163.93500000  * -48.24000000  *
   226       C         71.81400000  *  162.79200000  * -49.07000000  *
   227       H         71.97800000  *  162.06700000  * -49.86400000  *
   228       H         72.42900000  *  163.67700000  * -49.23900000  *
   229       H         72.10500000  *  162.33200000  * -48.12600000  *
   230       C         69.94400000  *  163.83800000  * -50.32200000  *
   231       O         69.22100000  *  163.25100000  * -51.12800000  *
   232       N         70.40700000  *  165.06400000  * -50.52400000  *
   233       H         70.93200000  *  165.53000000  * -49.79600000  *
   234       C         70.10800000  *  165.77900000  * -51.74600000  *
   235       H         69.54100000  *  165.15900000  * -52.44400000  *
   236       H         69.52200000  *  166.69100000  * -51.53000000  *
   237       H         71.05900000  *  166.04700000  * -52.23900000  *
   238       H         68.08600000  *  164.80700000  * -56.55000000  *
   239       C         68.21200000  *  164.39600000  * -55.53600000  *
   240       O         69.28600000  *  164.50800000  * -54.94200000  *
   241       N         67.13500000  *  163.82300000  * -55.01100000  *
   242       H         66.34000000  *  163.66800000  * -55.61500000  *
   243       C         67.13600000  *  163.21200000  * -53.68800000  *
   244       H         67.86300000  *  163.70700000  * -53.05000000  *
   245       C         65.75500000  *  163.32300000  * -53.02900000  *
   246       H         64.97700000  *  163.06900000  * -53.75000000  *
   247       C         65.64800000  *  162.36600000  * -51.85200000  *
   248       H         66.47200000  *  162.51800000  * -51.15200000  *
   249       H         64.69700000  *  162.53800000  * -51.34700000  *
   250       H         65.65200000  *  161.33900000  * -52.20000000  *
   251       C         65.54000000  *  164.75000000  * -52.56600000  *
   252       H         65.62600000  *  165.42400000  * -53.41600000  *
   253       H         64.53500000  *  164.85100000  * -52.15900000  *
   254       H         66.28400000  *  165.00300000  * -51.81000000  *
   255       C         67.52600000  *  161.76000000  * -53.84700000  *
   256       O         66.97900000  *  161.02800000  * -54.68200000  *
   257       N         68.49600000  *  161.34900000  * -53.04800000  *
   258       H         68.91100000  *  161.99700000  * -52.39100000  *
   259       C         69.01100000  *  159.99200000  * -53.10200000  *
   260       H         68.34600000  *  159.34100000  * -53.67900000  *
   261       C         70.37400000  *  159.97400000  * -53.81600000  *
   262       H         70.77500000  *  158.96500000  * -53.87500000  *
   263       C         70.21400000  *  160.50700000  * -55.21300000  *
   264       H         69.95700000  *  161.56600000  * -55.19000000  *
   265       H         71.15100000  *  160.39100000  * -55.75600000  *
   266       H         69.44200000  *  159.95000000  * -55.73600000  *
   267       C         71.37900000  *  160.85000000  * -53.05700000  *
   268       H         71.56500000  *  160.44500000  * -52.06400000  *
   269       H         72.31500000  *  160.84900000  * -53.61300000  *
   270       H         71.03600000  *  161.88400000  * -52.98400000  *
   271       C         69.19200000  *  159.37200000  * -51.72900000  *
   272       O         69.02000000  *  160.03600000  * -50.68600000  *
   273       N         69.38800000  *  158.06000000  * -51.70400000  *
   274       H         69.47000000  *  157.56700000  * -52.58800000  *
   275       C         69.76100000  *  157.32500000  * -50.51000000  *
   276       H         69.48000000  *  157.88900000  * -49.62200000  *
   277       C         69.00300000  *  156.00800000  * -50.47800000  *
   278       H         69.24700000  *  155.43400000  * -51.36900000  *
   279       H         69.28200000  *  155.44000000  * -49.58900000  *
   280       H         67.93300000  *  156.21200000  * -50.45300000  *
   281       C         71.27700000  *  157.13600000  * -50.53300000  *
   282       O         71.80900000  *  156.45000000  * -51.41100000  *
   283       N         71.97000000  *  157.79100000  * -49.60300000  *
   284       H         71.44500000  *  158.28300000  * -48.88900000  *
   285       C         73.41300000  *  157.73400000  * -49.53500000  *
   286       H         73.80300000  *  157.43200000  * -50.50200000  *
   287       C         73.96100000  *  159.11400000  * -49.18200000  *
   288       H         73.49200000  *  159.84000000  * -49.85100000  *
   289       H         73.62800000  *  159.35800000  * -48.16900000  *
   290       C         75.47300000  *  159.31600000  * -49.26600000  *
   291       H         75.96900000  *  158.63700000  * -48.57100000  *
   292       C         75.94900000  *  159.02000000  * -50.68400000  *
   293       H         75.44100000  *  159.71800000  * -51.34800000  *
   294       H         77.02400000  *  159.18800000  * -50.76300000  *
   295       H         75.74700000  *  157.98700000  * -50.96800000  *
   296       C         75.80400000  *  160.74000000  * -48.87900000  *
   297       H         75.43700000  *  160.94600000  * -47.87600000  *
   298       H         76.88200000  *  160.87900000  * -48.92200000  *
   299       H         75.32000000  *  161.42900000  * -49.57600000  *
   300       C         73.82100000  *  156.71600000  * -48.48500000  *
   301       O         73.39600000  *  156.78100000  * -47.33400000  *
   302       N         74.70100000  *  155.79100000  * -48.83900000  *
   303       H         74.97800000  *  155.73600000  * -49.81700000  *
   304       C         75.07200000  *  154.69500000  * -47.94700000  *
   305       H         74.61900000  *  154.83800000  * -46.96500000  *
   306       C         74.44000000  *  153.43600000  * -48.56000000  *
   307       H         73.44400000  *  153.70800000  * -48.92100000  *
   308       H         75.00800000  *  153.12100000  * -49.42900000  *
   309       C         74.22100000  *  152.26300000  * -47.60400000  *
   310       H         73.89100000  *  152.63100000  * -46.63200000  *
   311       H         73.42100000  *  151.65600000  * -48.02700000  *
   312       C         75.47700000  *  151.40900000  * -47.43200000  *
   313       H         76.01600000  *  151.38000000  * -48.37800000  *
   314       H         76.11100000  *  151.88900000  * -46.68300000  *
   315       C         75.15000000  *  149.97200000  * -46.98500000  *
   316       H         76.07000000  *  149.48800000  * -46.64100000  *
   317       H         74.46800000  *  150.03600000  * -46.12900000  *
   318       N         74.52900000  *  149.17400000  * -48.08500000  *
   319       H         75.19400000  *  148.89600000  * -48.79700000  *
   320       H         74.06000000  *  148.32000000  * -47.75200000  *
   321       H         73.77800000  *  149.68900000  * -48.52700000  *
   322       C         76.58600000  *  154.72500000  * -47.74700000  *
   323       O         77.33400000  *  154.36900000  * -48.65400000  *
   324       N         77.01700000  *  155.22600000  * -46.58100000  *
   325       H         76.29800000  *  155.26800000  * -45.86500000  *
   326       C         78.42200000  *  155.28900000  * -46.15900000  *
   327       H         79.06600000  *  155.59300000  * -46.98900000  *
   328       C         78.56700000  *  156.26000000  * -44.97900000  *
   329       H         78.02700000  *  155.87500000  * -44.10900000  *
   330       H         79.62500000  *  156.33900000  * -44.73000000  *
   331       C         78.01500000  *  157.64300000  * -45.34000000  *
   332       H         78.45100000  *  157.95800000  * -46.27300000  *
   333       H         76.93600000  *  157.57500000  * -45.50000000  *
   334       C         78.25100000  *  158.72500000  * -44.27900000  *
   335       H         77.97800000  *  159.68000000  * -44.73200000  *
   336       H         77.56000000  *  158.53300000  * -43.46900000  *
   337       C         79.67700000  *  158.85000000  * -43.70900000  *
   338       H         80.38400000  *  158.36300000  * -44.39700000  *
   339       H         79.95000000  *  159.91100000  * -43.68600000  *
   340       N         79.78800000  *  158.26900000  * -42.33500000  *
   341       H         79.63700000  *  157.26100000  * -42.37000000  *
   342       H         80.69600000  *  158.42600000  * -41.93200000  *
   343       H         79.10400000  *  158.64600000  * -41.70100000  *
   344       C         78.82300000  *  153.89100000  * -45.72900000  *
   345       O         78.09100000  *  153.31500000  * -44.93700000  *
   346       N         79.90700000  *  153.32000000  * -46.24700000  *
   347       H         80.40500000  *  153.76400000  * -47.01000000  *
   348       C         80.34300000  *  152.02200000  * -45.76800000  *
   349       H         79.49500000  *  151.49800000  * -45.35900000  *
   350       C         80.94400000  *  151.18600000  * -46.89500000  *
   351       H         81.78600000  *  151.78200000  * -47.16900000  *
   352       C         81.42400000  *  149.85200000  * -46.34500000  *
   353       H         80.65600000  *  149.35200000  * -45.75200000  *
   354       H         81.67900000  *  149.19900000  * -47.17900000  *
   355       H         82.34500000  *  149.95700000  * -45.76100000  *
   356       C         79.89700000  *  150.97600000  * -47.99700000  *
   357       H         79.60200000  *  151.87000000  * -48.50000000  *
   358       H         80.28300000  *  150.30500000  * -48.75000000  *
   359       C         78.59100000  *  150.36100000  * -47.52600000  *
   360       H         78.17700000  *  150.90100000  * -46.69000000  *
   361       H         77.89400000  *  150.33700000  * -48.36300000  *
   362       H         78.77100000  *  149.33300000  * -47.20900000  *
   363       C         81.33300000  *  152.07100000  * -44.61400000  *
   364       O         82.16700000  *  152.98000000  * -44.51900000  *
   365       N         81.21100000  *  151.07100000  * -43.74300000  *
   366       H         80.50300000  *  150.36100000  * -43.92800000  *
   367       C         82.04400000  *  150.90200000  * -42.55200000  *
   368       H         81.47500000  *  151.18100000  * -41.66300000  *
   369       H         82.35800000  *  149.86100000  * -42.45900000  *
   370       H         82.94700000  *  151.51400000  * -42.62000000  *
   371       H         81.25700000  *  144.04600000  * -57.89900000  *
   372       C         80.50000000  *  144.84100000  * -57.88800000  *
   373       O         79.71500000  *  144.99000000  * -58.82400000  *
   374       N         80.49900000  *  145.60300000  * -56.79700000  *
   375       H         81.28000000  *  145.52500000  * -56.16600000  *
   376       C         79.57000000  *  146.70600000  * -56.61200000  *
   377       H         78.57500000  *  146.34400000  * -56.42300000  *
   378       C         80.00500000  *  147.61000000  * -55.44200000  *
   379       H         80.89800000  *  148.18000000  * -55.68500000  *
   380       C         78.90600000  *  148.60800000  * -55.12500000  *
   381       H         77.92000000  *  148.14100000  * -55.17600000  *
   382       H         79.04500000  *  148.98700000  * -54.11600000  *
   383       H         78.93800000  *  149.43600000  * -55.83300000  *
   384       C         80.32100000  *  146.76200000  * -54.20900000  *
   385       H         81.19200000  *  146.13400000  * -54.40600000  *
   386       H         80.59400000  *  147.42200000  * -53.38900000  *
   387       C         79.18400000  *  145.87900000  * -53.76500000  *
   388       H         78.77800000  *  145.31100000  * -54.59400000  *
   389       H         79.50900000  *  145.12200000  * -53.06500000  *
   390       H         78.38800000  *  146.48300000  * -53.33500000  *
   391       C         79.54300000  *  147.54500000  * -57.87900000  *
   392       O         78.48200000  *  147.77900000  * -58.45100000  *
   393       N         80.72300000  *  147.98900000  * -58.30900000  *
   394       H         81.55800000  *  147.70100000  * -57.81200000  *
   395       C         80.85900000  *  148.80400000  * -59.51100000  *
   396       H         80.33900000  *  149.74600000  * -59.38600000  *
   397       H         81.92800000  *  148.98500000  * -59.72900000  *
   398       H         80.37800000  *  148.32200000  * -60.38100000  *
   399       H         78.96400000  *  146.08700000  * -61.65600000  *
   400       C         77.87300000  *  146.08700000  * -61.51600000  *
   401       O         77.11500000  *  145.89500000  * -62.46400000  *
   402       N         77.44600000  *  146.31800000  * -60.28000000  *
   403       H         78.13400000  *  146.42500000  * -59.54900000  *
   404       C         76.02800000  *  146.35200000  * -59.94500000  *
   405       H         75.53300000  *  145.47600000  * -60.35900000  *
   406       C         75.84100000  *  146.37400000  * -58.43100000  *
   407       H         76.20500000  *  147.30400000  * -58.01800000  *
   408       H         74.76300000  *  146.35700000  * -58.24200000  *
   409       C         76.47200000  *  145.22200000  * -57.65900000  *
   410       H         77.55000000  *  145.23900000  * -57.74900000  *
   411       C         76.08000000  *  145.34100000  * -56.19200000  *
   412       H         74.99900000  *  145.23000000  * -56.07700000  *
   413       H         76.57300000  *  144.55300000  * -55.62900000  *
   414       H         76.38500000  *  146.30900000  * -55.80100000  *
   415       C         75.99600000  *  143.89000000  * -58.23600000  *
   416       H         76.41500000  *  143.73000000  * -59.22900000  *
   417       H         76.32800000  *  143.07800000  * -57.59100000  *
   418       H         74.90500000  *  143.87400000  * -58.30500000  *
   419       C         75.32200000  *  147.55900000  * -60.54800000  *
   420       O         74.09500000  *  147.56800000  * -60.66200000  *
   421       N         76.08400000  *  148.63100000  * -60.82900000  *
   422       H         77.08200000  *  148.53500000  * -60.67700000  *
   423       C         75.60100000  *  149.83300000  * -61.53400000  *
   424       H         74.83700000  *  150.33500000  * -60.94100000  *
   425       H         76.43800000  *  150.53300000  * -61.75900000  *
   426       H         75.13800000  *  149.54900000  * -62.49200000  *
   427       H         62.79000000  *  145.77200000  * -59.27600000  *
   428       C         63.71000000  *  145.72000000  * -58.67500000  *
   429       O         63.77900000  *  145.02200000  * -57.66400000  *
   430       N         64.72400000  *  146.45200000  * -59.11400000  *
   431       H         64.63800000  *  147.05100000  * -59.92700000  *
   432       C         65.97100000  *  146.53500000  * -58.38100000  *
   433       H         65.88400000  *  146.09200000  * -57.38600000  *
   434       C         67.11600000  *  145.87700000  * -59.11400000  *
   435       H         67.33600000  *  146.42600000  * -60.03000000  *
   436       C         68.35100000  *  145.87800000  * -58.21400000  *
   437       H         68.14700000  *  145.31400000  * -57.31800000  *
   438       H         69.21000000  *  145.44500000  * -58.72400000  *
   439       H         68.64100000  *  146.89000000  * -57.94500000  *
   440       C         66.72800000  *  144.44400000  * -59.47800000  *
   441       H         66.54900000  *  143.87300000  * -58.56400000  *
   442       H         65.81500000  *  144.42400000  * -60.06800000  *
   443       C         67.77400000  *  143.72700000  * -60.29600000  *
   444       H         68.68300000  *  143.57700000  * -59.72200000  *
   445       H         67.37700000  *  142.75300000  * -60.59800000  *
   446       H         68.02300000  *  144.31300000  * -61.18000000  *
   447       C         66.29500000  *  148.01000000  * -58.22000000  *
   448       O         66.21200000  *  148.78000000  * -59.18400000  *
   449       N         66.55100000  *  148.43800000  * -56.98200000  *
   450       H         66.62300000  *  147.75500000  * -56.23200000  *
   451       C         66.88900000  *  149.83400000  * -56.68300000  *
   452       H         66.07300000  *  150.47900000  * -57.00900000  *
   453       C         67.09500000  *  150.03400000  * -55.17600000  *
   454       H         67.89000000  *  149.37300000  * -54.83000000  *
   455       C         67.47300000  *  151.47600000  * -54.83000000  *
   456       H         66.64900000  *  152.15300000  * -55.05700000  *
   457       H         67.70100000  *  151.52400000  * -53.76800000  *
   458       H         68.35500000  *  151.79100000  * -55.38300000  *
   459       C         65.81500000  *  149.71400000  * -54.40200000  *
   460       H         65.53200000  *  148.67300000  * -54.53000000  *
   461       H         65.99900000  *  149.88400000  * -53.34700000  *
   462       H         65.00100000  *  150.35100000  * -54.74200000  *
   463       C         68.15000000  *  150.21300000  * -57.45500000  *
   464       O         69.17800000  *  149.54100000  * -57.33500000  *
   465       N         68.08000000  *  151.28300000  * -58.25100000  *
   466       H         67.22500000  *  151.80400000  * -58.24500000  *
   467       C         69.18900000  *  151.69800000  * -59.08000000  *
   468       H         69.52500000  *  150.81900000  * -59.63900000  *
   469       C         68.73700000  *  152.76800000  * -60.08300000  *
   470       H         67.83400000  *  152.41100000  * -60.57900000  *
   471       H         68.47700000  *  153.68100000  * -59.53700000  *
   472       C         69.79100000  *  153.06900000  * -61.13100000  *
   473       H         70.72100000  *  153.35000000  * -60.64200000  *
   474       H         69.97400000  *  152.16800000  * -61.71600000  *
   475       C         69.35100000  *  154.17900000  * -62.08100000  *
   476       H         68.50200000  *  153.81400000  * -62.66100000  *
   477       H         69.02300000  *  155.05600000  * -61.52200000  *
   478       C         70.49800000  *  154.55900000  * -63.02400000  *
   479       H         71.33900000  *  154.89000000  * -62.40800000  *
   480       H         70.81900000  *  153.66100000  * -63.56600000  *
   481       N         70.11800000  *  155.62600000  * -63.99700000  *
   482       H         69.74700000  *  156.41600000  * -63.48300000  *
   483       H         70.92600000  *  155.93300000  * -64.52500000  *
   484       H         69.41500000  *  155.27800000  * -64.63600000  *
   485       C         70.36000000  *  152.21400000  * -58.25300000  *
   486       O         70.19400000  *  153.07400000  * -57.38700000  *
   487       N         71.53700000  *  151.64500000  * -58.50700000  *
   488       H         71.59600000  *  150.90400000  * -59.18600000  *
   489       C         72.75000000  *  152.07400000  * -57.83600000  *
   490       H         72.53800000  *  152.52600000  * -56.87100000  *
   491       C         73.72700000  *  150.91100000  * -57.67000000  *
   492       H         73.31500000  *  150.22100000  * -56.93700000  *
   493       H         73.77900000  *  150.36900000  * -58.62000000  *
   494       C         75.16700000  *  151.27300000  * -57.28800000  *
   495       H         75.65500000  *  151.80300000  * -58.10000000  *
   496       C         75.18300000  *  152.16500000  * -56.05900000  *
   497       H         74.60800000  *  151.72100000  * -55.25200000  *
   498       H         76.21000000  *  152.29600000  * -55.73500000  *
   499       H         74.78900000  *  153.14000000  * -56.31200000  *
   500       C         75.93300000  *  149.99400000  * -57.01300000  *
   501       H         75.98300000  *  149.42100000  * -57.93300000  *
   502       H         76.94600000  *  150.24200000  * -56.71200000  *
   503       H         75.43500000  *  149.41000000  * -56.23200000  *
   504       C         73.31900000  *  153.11300000  * -58.79500000  *
   505       O         73.76900000  *  152.77900000  * -59.89700000  *
   506       N         73.26700000  *  154.36900000  * -58.37800000  *
   507       H         72.92600000  *  154.57000000  * -57.44900000  *
   508       C         73.73400000  *  155.46600000  * -59.19700000  *
   509       H         73.47500000  *  155.26500000  * -60.23600000  *
   510       C         73.02500000  *  156.74200000  * -58.76000000  *
   511       H         73.45000000  *  157.06300000  * -57.80900000  *
   512       H         73.23600000  *  157.53300000  * -59.48700000  *
   513       C         71.51300000  *  156.60300000  * -58.58700000  *
   514       H         71.27400000  *  155.80900000  * -57.88500000  *
   515       C         70.97400000  *  157.88000000  * -58.01900000  *
   516       H         71.37000000  *  158.74600000  * -58.56000000  *
   517       H         69.88800000  *  157.89100000  * -58.09300000  *
   518       H         71.22100000  *  157.96000000  * -56.96600000  *
   519       C         70.85100000  *  156.29000000  * -59.92300000  *
   520       H         71.28300000  *  155.39700000  * -60.34200000  *
   521       H         69.78900000  *  156.14400000  * -59.75100000  *
   522       H         71.00300000  *  157.12700000  * -60.60700000  *
   523       C         75.24500000  *  155.67800000  * -59.15800000  *
   524       O         75.83900000  *  156.04700000  * -60.17600000  *
   525       N         75.86200000  *  155.44600000  * -57.99600000  *
   526       H         75.29500000  *  155.17900000  * -57.20400000  *
   527       C         77.30800000  *  155.64700000  * -57.82900000  *
   528       H         77.80800000  *  155.40400000  * -58.76600000  *
   529       C         77.60000000  *  157.11700000  * -57.51900000  *
   530       H         76.91700000  *  157.54400000  * -56.80300000  *
   531       H         78.58200000  *  157.17000000  * -57.04800000  *
   532       C         77.65600000  *  157.97500000  * -58.75600000  *
   533       O         78.67800000  *  157.91700000  * -59.48300000  *
   534       O         76.67400000  *  158.70400000  * -59.00000000  *
   535       C         77.97900000  *  154.81700000  * -56.73400000  *
   536       O         77.37100000  *  154.52100000  * -55.70400000  *
   537       N         79.24700000  *  154.47700000  * -56.96600000  *
   538       H         79.69800000  *  154.82400000  * -57.79800000  *
   539       C         80.06100000  *  153.73800000  * -56.00300000  *
   540       H         79.55400000  *  153.69900000  * -55.05200000  *
   541       C         80.36600000  *  152.29800000  * -56.50400000  *
   542       H         79.42700000  *  151.75200000  * -56.56200000  *
   543       C         80.98100000  *  152.34300000  * -57.88400000  *
   544       H         82.06600000  *  152.43300000  * -57.82100000  *
   545       H         80.74600000  *  151.41400000  * -58.37900000  *
   546       H         80.59600000  *  153.14500000  * -58.51000000  *
   547       C         81.29900000  *  151.58800000  * -55.53900000  *
   548       H         80.81100000  *  151.54900000  * -54.57200000  *
   549       H         81.47300000  *  150.57200000  * -55.87800000  *
   550       H         82.25900000  *  152.09200000  * -55.44900000  *
   551       C         81.36500000  *  154.53600000  * -55.81000000  *
   552       O         82.27000000  *  154.48900000  * -56.64700000  *
   553       N         81.45200000  *  155.28200000  * -54.71000000  *
   554       H         80.67600000  *  155.30400000  * -54.06400000  *
   555       C         82.62100000  *  156.11100000  * -54.44300000  *
   556       H         83.20500000  *  156.21800000  * -55.35800000  *
   557       H         82.32200000  *  157.12800000  * -54.14500000  *
   558       H         83.29700000  *  155.73900000  * -53.65600000  *
   559       H         84.58000000  *  155.17100000  * -47.07300000  *
   560       C         84.22500000  *  154.98400000  * -48.09100000  *
   561       O         84.63900000  *  155.65900000  * -49.04200000  *
   562       N         83.35800000  *  153.99100000  * -48.22200000  *
   563       H         83.13600000  *  153.42800000  * -47.41700000  *
   564       C         82.77600000  *  153.65100000  * -49.50600000  *
   565       H         83.37000000  *  154.04700000  * -50.31700000  *
   566       C         82.71900000  *  152.14000000  * -49.66000000  *
   567       H         83.74000000  *  151.87500000  * -49.95700000  *
   568       H         82.64400000  *  151.54600000  * -48.78400000  *
   569       C         81.82600000  *  151.61900000  * -50.77900000  *
   570       H         80.79100000  *  151.88400000  * -50.58700000  *
   571       C         82.25800000  *  152.23100000  * -52.09200000  *
   572       H         83.31100000  *  152.49100000  * -52.08900000  *
   573       H         82.09300000  *  151.51300000  * -52.88400000  *
   574       H         81.65400000  *  153.10900000  * -52.31200000  *
   575       C         81.89900000  *  150.09400000  * -50.82200000  *
   576       H         81.91300000  *  149.66400000  * -49.82700000  *
   577       H         81.05200000  *  149.70600000  * -51.39100000  *
   578       H         82.82500000  *  149.80300000  * -51.32100000  *
   579       C         81.36700000  *  154.23200000  * -49.54800000  *
   580       O         80.51800000  *  153.85700000  * -48.74500000  *
   581       N         81.13100000  *  155.16100000  * -50.46700000  *
   582       H         81.84500000  *  155.34800000  * -51.16200000  *
   583       C         79.82200000  *  155.78100000  * -50.60800000  *
   584       H         79.27400000  *  155.67000000  * -49.68700000  *
   585       C         79.96700000  *  157.27800000  * -50.86800000  *
   586       H         80.42300000  *  157.50400000  * -51.79700000  *
   587       H         78.95400000  *  157.66400000  * -50.98900000  *
   588       C         80.57600000  *  158.04300000  * -49.72300000  *
   589       C         79.79300000  *  158.48000000  * -48.65600000  *
   590       H         78.73500000  *  158.25400000  * -48.66900000  *
   591       C         80.35600000  *  159.18600000  * -47.59400000  *
   592       H         79.75300000  *  159.56200000  * -46.79700000  *
   593       C         81.71600000  *  159.45200000  * -47.58700000  *
   594       O         82.27600000  *  160.12500000  * -46.52100000  *
   595       H         83.20600000  *  160.30800000  * -46.74500000  *
   596       C         82.51400000  *  159.02600000  * -48.63700000  *
   597       H         83.58200000  *  159.23300000  * -48.65000000  *
   598       C         81.94100000  *  158.32800000  * -49.69800000  *
   599       H         82.57400000  *  157.98100000  * -50.50200000  *
   600       C         79.04800000  *  155.15800000  * -51.76500000  *
   601       O         79.54400000  *  155.08000000  * -52.88800000  *
   602       N         77.86500000  *  154.61600000  * -51.48700000  *
   603       H         77.55100000  *  154.60700000  * -50.52200000  *
   604       C         76.98400000  *  154.05300000  * -52.51000000  *
   605       H         77.50800000  *  154.00600000  * -53.45800000  *
   606       C         76.55400000  *  152.61900000  * -52.15800000  *
   607       H         75.88200000  *  152.65700000  * -51.30800000  *
   608       H         75.99300000  *  152.22400000  * -53.00600000  *
   609       C         77.69200000  *  151.64100000  * -51.82300000  *
   610       H         78.20200000  *  151.96500000  * -50.91600000  *
   611       C         77.12400000  *  150.24200000  * -51.59000000  *
   612       H         76.64600000  *  149.87400000  * -52.50000000  *
   613       H         77.92900000  *  149.56000000  * -51.31000000  *
   614       H         76.39200000  *  150.27200000  * -50.78600000  *
   615       C         78.70300000  *  151.54500000  * -52.95700000  *
   616       H         79.22200000  *  152.49400000  * -53.06500000  *
   617       H         79.44000000  *  150.78100000  * -52.72200000  *
   618       H         78.19600000  *  151.29900000  * -53.89100000  *
   619       C         75.78500000  *  154.98200000  * -52.67000000  *
   620       O         75.10000000  *  155.25000000  * -51.67800000  *
   621       N         75.54700000  *  155.50800000  * -53.87800000  *
   622       H         76.14500000  *  155.25500000  * -54.66000000  *
   623       C         74.40900000  *  156.37500000  * -54.09400000  *
   624       H         73.97600000  *  156.70200000  * -53.15000000  *
   625       C         74.83400000  *  157.63700000  * -54.81800000  *
   626       H         75.25500000  *  157.34500000  * -55.76600000  *
   627       C         73.61400000  *  158.52200000  * -55.10900000  *
   628       H         73.11700000  *  158.76900000  * -54.17500000  *
   629       H         73.94100000  *  159.43100000  * -55.61500000  *
   630       H         72.91600000  *  158.00900000  * -55.76200000  *
   631       C         75.84000000  *  158.38200000  * -53.94900000  *
   632       H         75.28100000  *  158.78400000  * -53.13000000  *
   633       H         76.65600000  *  157.75800000  * -53.60500000  *
   634       H         76.26100000  *  159.20400000  * -54.52500000  *
   635       C         73.31400000  *  155.64400000  * -54.85300000  *
   636       O         73.49500000  *  155.22100000  * -55.99400000  *
   637       N         72.21600000  *  155.37300000  * -54.15600000  *
   638       H         72.14800000  *  155.72200000  * -53.20300000  *
   639       C         71.04100000  *  154.70500000  * -54.70200000  *
   640       H         71.29200000  *  154.24600000  * -55.65300000  *
   641       C         70.57800000  *  153.60600000  * -53.74200000  *
   642       H         70.43200000  *  154.04100000  * -52.75300000  *
   643       H         69.61000000  *  153.24700000  * -54.08300000  *
   644       C         71.51000000  *  152.41500000  * -53.62000000  *
   645       C         71.37400000  *  151.32100000  * -54.49700000  *
   646       H         70.63500000  *  151.34300000  * -55.28400000  *
   647       C         72.19200000  *  150.18800000  * -54.34800000  *
   648       H         72.07700000  *  149.34500000  * -55.01700000  *
   649       C         73.15600000  *  150.14600000  * -53.32700000  *
   650       H         73.78700000  *  149.27400000  * -53.21300000  *
   651       C         73.29800000  *  151.23900000  * -52.45400000  *
   652       H         74.03100000  *  151.20100000  * -51.66200000  *
   653       C         72.48100000  *  152.37400000  * -52.60100000  *
   654       H         72.59000000  *  153.21000000  * -51.92200000  *
   655       C         69.91900000  *  155.71800000  * -54.93700000  *
   656       O         69.78800000  *  156.69200000  * -54.19400000  *
   657       N         69.08500000  *  155.49500000  * -55.95300000  *
   658       H         69.23500000  *  154.67100000  * -56.52800000  *
   659       C         67.81800000  *  156.23000000  * -56.08100000  *
   660       H         68.05600000  *  157.28000000  * -56.25500000  *
   661       C         67.01800000  *  155.72900000  * -57.29400000  *
   662       H         66.15300000  *  156.38300000  * -57.41500000  *
   663       H         67.63800000  *  155.80800000  * -58.18700000  *
   664       C         66.53300000  *  154.27900000  * -57.14600000  *
   665       H         67.40200000  *  153.62800000  * -57.04100000  *
   666       H         65.93600000  *  154.19100000  * -56.24200000  *
   667       C         65.66400000  *  153.78900000  * -58.30800000  *
   668       O         65.12900000  *  154.60700000  * -59.09100000  *
   669       O         65.47900000  *  152.55600000  * -58.40300000  *
   670       C         66.99700000  *  156.14300000  * -54.77600000  *
   671       O         66.95900000  *  155.09600000  * -54.12300000  *
   672       N         66.35500000  *  157.23700000  * -54.36200000  *
   673       H         66.37600000  *  158.07300000  * -54.92900000  *
   674       C         65.49800000  *  157.23000000  * -53.17600000  *
   675       H         65.96800000  *  156.61000000  * -52.40900000  *
   676       C         65.39000000  *  158.64800000  * -52.61000000  *
   677       H         66.39000000  *  159.00500000  * -52.37000000  *
   678       H         64.97300000  *  159.30300000  * -53.37600000  *
   679       C         64.54400000  *  158.74900000  * -51.35500000  *
   680       C         63.25100000  *  159.30400000  * -51.41100000  *
   681       H         62.85400000  *  159.66500000  * -52.34900000  *
   682       C         62.47000000  *  159.38800000  * -50.24500000  *
   683       H         61.47800000  *  159.81400000  * -50.29300000  *
   684       C         62.97600000  *  158.91400000  * -49.02200000  *
   685       H         62.37300000  *  158.97400000  * -48.12600000  *
   686       C         64.26700000  *  158.36100000  * -48.96400000  *
   687       H         64.65600000  *  158.00200000  * -48.02300000  *
   688       C         65.05100000  *  158.27800000  * -50.12900000  *
   689       H         66.04300000  *  157.85300000  * -50.08300000  *
   690       C         64.11300000  *  156.63800000  * -53.47900000  *
   691       O         63.47100000  *  157.01100000  * -54.46300000  *
   692       N         63.63500000  *  155.76000000  * -52.59400000  *
   693       H         64.23700000  *  155.48900000  * -51.82700000  *
   694       C         62.23700000  *  155.32300000  * -52.51700000  *
   695       H         61.63400000  *  155.88000000  * -53.23700000  *
   696       C         62.10400000  *  153.82200000  * -52.82800000  *
   697       H         62.83600000  *  153.27100000  * -52.24200000  *
   698       H         61.11200000  *  153.51100000  * -52.49900000  *
   699       C         62.24900000  *  153.46800000  * -54.32200000  *
   700       H         61.88700000  *  154.29600000  * -54.93100000  *
   701       C         63.69900000  *  153.15800000  * -54.69500000  *
   702       H         64.07500000  *  152.34200000  * -54.08100000  *
   703       H         63.76300000  *  152.88800000  * -55.74800000  *
   704       H         64.32000000  *  154.03500000  * -54.52900000  *
   705       C         61.41400000  *  152.23100000  * -54.66300000  *
   706       H         60.36900000  *  152.40800000  * -54.40700000  *
   707       H         61.47300000  *  152.03100000  * -55.73100000  *
   708       H         61.77400000  *  151.36400000  * -54.11100000  *
   709       C         61.69100000  *  155.64500000  * -51.12200000  *
   710       O         62.41700000  *  155.57500000  * -50.13200000  *
   711       N         60.42700000  *  156.05400000  * -51.05000000  *
   712       H         59.90300000  *  156.11400000  * -51.91400000  *
   713       C         59.85500000  *  156.75000000  * -49.89200000  *
   714       H         60.56800000  *  157.51000000  * -49.57100000  *
   715       C         58.58200000  *  157.48000000  * -50.34400000  *
   716       H         57.80800000  *  156.74000000  * -50.54600000  *
   717       H         58.24300000  *  158.12000000  * -49.53000000  *
   718       C         58.75100000  *  158.33100000  * -51.58300000  *
   719       N         58.81200000  *  157.85000000  * -52.89600000  *
   720       C         58.98100000  *  158.93100000  * -53.67700000  *
   721       H         59.06500000  *  158.91100000  * -54.75800000  *
   722       N         59.02900000  *  160.04600000  * -52.92800000  *
   723       H         59.14500000  *  160.98800000  * -53.29000000  *
   724       C         58.88600000  *  159.68800000  * -51.60500000  *
   725       H         58.88100000  *  160.34800000  * -50.74700000  *
   726       C         59.58200000  *  155.87800000  * -48.65200000  *
   727       O         59.46200000  *  156.42300000  * -47.55400000  *
   728       N         59.47700000  *  154.55100000  * -48.79800000  *
   729       H         59.60100000  *  154.16100000  * -49.72200000  *
   730       C         59.09800000  *  153.62300000  * -47.72100000  *
   731       H         59.55400000  *  153.96300000  * -46.79000000  *
   732       C         57.56400000  *  153.67100000  * -47.54800000  *
   733       H         57.28600000  *  154.68600000  * -47.26400000  *
   734       H         57.07900000  *  153.44200000  * -48.49900000  *
   735       C         57.03600000  *  152.70400000  * -46.47700000  *
   736       H         56.91600000  *  151.71600000  * -46.91900000  *
   737       H         57.76000000  *  152.63600000  * -45.66700000  *
   738       C         55.71300000  *  153.15800000  * -45.87300000  *
   739       O         55.66400000  *  153.87100000  * -44.88400000  *
   740       N         54.58700000  *  152.76800000  * -46.43200000  *
   741       H         53.73400000  *  153.09100000  * -46.00300000  *
   742       H         54.59700000  *  152.21100000  * -47.26800000  *
   743       C         59.60600000  *  152.19200000  * -47.97900000  *
   744       O         59.67400000  *  151.75200000  * -49.12900000  *
   745       N         59.94800000  *  151.45800000  * -46.91400000  *
   746       H         59.85300000  *  151.87900000  * -45.99000000  *
   747       C         60.27600000  *  150.02500000  * -46.99400000  *
   748       H         60.57000000  *  149.81000000  * -48.01800000  *
   749       C         61.50400000  *  149.68900000  * -46.12900000  *
   750       H         61.82700000  *  148.68100000  * -46.39200000  *
   751       H         62.31400000  *  150.36700000  * -46.40100000  *
   752       C         61.28600000  *  149.73700000  * -44.61300000  *
   753       O         60.30800000  *  149.13400000  * -44.12400000  *
   754       O         62.14300000  *  150.32700000  * -43.91400000  *
   755       C         59.07200000  *  149.10700000  * -46.70000000  *
   756       O         58.03700000  *  149.53700000  * -46.17200000  *
   757       N         59.19100000  *  147.81900000  * -47.04800000  *
   758       H         60.03800000  *  147.50900000  * -47.52500000  *
   759       C         58.10100000  *  146.88000000  * -46.84100000  *
   760       H         57.21800000  *  147.32500000  * -47.29300000  *
   761       C         58.41200000  *  145.57700000  * -47.59200000  *
   762       H         58.61300000  *  145.80400000  * -48.64400000  *
   763       H         59.28800000  *  145.12100000  * -47.15800000  *
   764       C         57.28700000  *  144.52700000  * -47.51900000  *
   765       H         57.05600000  *  144.28000000  * -46.48700000  *
   766       C         56.00700000  *  145.04400000  * -48.19600000  *
   767       H         56.23500000  *  145.37800000  * -49.20200000  *
   768       H         55.26800000  *  144.24500000  * -48.23100000  *
   769       H         55.59500000  *  145.87000000  * -47.62900000  *
   770       C         57.76800000  *  143.24900000  * -48.17500000  *
   771       H         58.61500000  *  142.85400000  * -47.62000000  *
   772       H         56.97300000  *  142.50400000  * -48.17100000  *
   773       H         58.06400000  *  143.44500000  * -49.20700000  *
   774       C         57.76400000  *  146.61300000  * -45.36900000  *
   775       O         56.60900000  *  146.37600000  * -45.03000000  *
   776       N         58.75700000  *  146.67700000  * -44.48800000  *
   777       H         59.64000000  *  147.08600000  * -44.79000000  *
   778       C         58.49100000  *  146.46700000  * -43.07300000  *
   779       H         57.97900000  *  145.55100000  * -42.87200000  *
   780       C         59.78200000  *  146.47800000  * -42.25400000  *
   781       H         60.44800000  *  145.70000000  * -42.62000000  *
   782       H         60.28600000  *  147.44000000  * -42.35600000  *
   783       C         59.49200000  *  146.22900000  * -40.76500000  *
   784       H         58.94200000  *  147.08300000  * -40.37400000  *
   785       H         58.87100000  *  145.33200000  * -40.67600000  *
   786       C         60.74500000  *  146.03800000  * -39.93500000  *
   787       H         61.36100000  *  145.25900000  * -40.37900000  *
   788       H         61.30800000  *  146.97100000  * -39.90700000  *
   789       C         60.37600000  *  145.60700000  * -38.51700000  *
   790       H         59.98500000  *  144.58900000  * -38.53700000  *
   791       H         61.27900000  *  145.61300000  * -37.90300000  *
   792       N         59.34600000  *  146.53100000  * -37.94700000  *
   793       H         58.44600000  *  146.48100000  * -38.44300000  *
   794       H         59.09000000  *  146.27800000  * -37.00400000  *
   795       H         59.61300000  *  147.50600000  * -37.97800000  *
   796       C         57.55800000  *  147.53800000  * -42.51200000  *
   797       O         56.61300000  *  147.23400000  * -41.78300000  *
   798       N         57.83600000  *  148.81600000  * -42.79600000  *
   799       H         58.66400000  *  149.01400000  * -43.36300000  *
   800       C         56.99500000  *  149.92200000  * -42.31900000  *
   801       H         56.87800000  *  149.82400000  * -41.23700000  *
   802       C         57.66200000  *  151.27700000  * -42.60200000  *
   803       H         58.65800000  *  151.28000000  * -42.15600000  *
   804       H         57.75900000  *  151.42000000  * -43.67800000  *
   805       C         56.83700000  *  152.42600000  * -41.99400000  *
   806       H         55.87400000  *  152.48300000  * -42.50200000  *
   807       H         56.65900000  *  152.21800000  * -40.93700000  *
   808       C         57.53900000  *  153.78300000  * -42.11500000  *
   809       H         58.46400000  *  153.76100000  * -41.53700000  *
   810       H         57.77000000  *  153.97900000  * -43.16400000  *
   811       C         56.61300000  *  154.88200000  * -41.57500000  *
   812       H         55.69200000  *  154.88200000  * -42.16700000  *
   813       H         56.34500000  *  154.63500000  * -40.54300000  *
   814       N         57.24800000  *  156.22300000  * -41.62400000  *
   815       H         57.47400000  *  156.48900000  * -42.57100000  *
   816       H         56.63000000  *  156.92800000  * -41.24900000  *
   817       H         58.09800000  *  156.24600000  * -41.08000000  *
   818       C         55.59600000  *  149.82000000  * -42.91900000  *
   819       O         54.61300000  *  150.04600000  * -42.22000000  *
   820       N         55.49500000  *  149.42600000  * -44.18900000  *
   821       H         56.35000000  *  149.26300000  * -44.71300000  *
   822       C         54.20500000  *  149.26000000  * -44.85200000  *
   823       H         53.62600000  *  150.17500000  * -44.72500000  *
   824       C         54.41000000  *  148.98800000  * -46.34000000  *
   825       H         54.98900000  *  149.80200000  * -46.77700000  *
   826       H         55.00200000  *  148.07700000  * -46.45200000  *
   827       C         53.12600000  *  148.85300000  * -47.10800000  *
   828       C         52.23100000  *  149.92200000  * -47.18600000  *
   829       H         52.46300000  *  150.85600000  * -46.69900000  *
   830       C         51.01500000  *  149.79500000  * -47.88400000  *
   831       H         50.32500000  *  150.62800000  * -47.91800000  *
   832       C         50.69700000  *  148.60300000  * -48.50200000  *
   833       H         49.75200000  *  148.50200000  * -49.02000000  *
   834       C         51.58700000  *  147.52100000  * -48.43200000  *
   835       H         51.33500000  *  146.58300000  * -48.91200000  *
   836       C         52.79500000  *  147.65400000  * -47.73300000  *
   837       H         53.46700000  *  146.81000000  * -47.67200000  *
   838       C         53.37400000  *  148.12200000  * -44.22700000  *
   839       O         52.16900000  *  148.28300000  * -44.00900000  *
   840       N         54.01600000  *  146.98100000  * -43.96600000  *
   841       H         55.00900000  *  146.90600000  * -44.17900000  *
   842       C         53.33800000  *  145.83600000  * -43.34100000  *
   843       H         52.47600000  *  145.52800000  * -43.93400000  *
   844       C         54.29200000  *  144.65000000  * -43.17000000  *
   845       H         55.15800000  *  145.02700000  * -42.63600000  *
   846       H         53.80700000  *  143.89200000  * -42.54700000  *
   847       C         54.73100000  *  144.00400000  * -44.46100000  *
   848       H         53.84700000  *  143.61400000  * -44.95900000  *
   849       H         55.19200000  *  144.69400000  * -45.15000000  *
   850       S         55.79700000  *  142.58100000  * -44.15400000  *
   851       C         57.05400000  *  143.29200000  * -43.18800000  *
   852       H         56.67800000  *  143.65800000  * -42.23500000  *
   853       H         57.80700000  *  142.53400000  * -42.98200000  *
   854       H         57.44300000  *  144.07900000  * -43.80900000  *
   855       C         52.84400000  *  146.26000000  * -41.95900000  *
   856       O         51.68200000  *  146.03200000  * -41.61400000  *
   857       N         53.72600000  *  146.88400000  * -41.17900000  *
   858       H         54.70100000  *  146.95700000  * -41.45300000  *
   859       C         53.34300000  *  147.35100000  * -39.84600000  *
   860       H         53.03400000  *  146.49700000  * -39.23800000  *
   861       C         54.50500000  *  148.07700000  * -39.15700000  *
   862       H         54.94100000  *  148.81500000  * -39.83000000  *
   863       H         54.12400000  *  148.60600000  * -38.28400000  *
   864       C         55.58400000  *  147.11500000  * -38.68500000  *
   865       O         55.26200000  *  145.90900000  * -38.57600000  *
   866       O         56.73300000  *  147.55200000  * -38.41700000  *
   867       C         52.15000000  *  148.27900000  * -39.96300000  *
   868       O         51.20300000  *  148.18000000  * -39.18700000  *
   869       N         52.18300000  *  149.16200000  * -40.95500000  *
   870       H         53.01600000  *  149.23700000  * -41.51800000  *
   871       C         51.08600000  *  150.10000000  * -41.17300000  *
   872       H         50.93100000  *  150.67400000  * -40.25800000  *
   873       C         51.42800000  *  151.06800000  * -42.31500000  *
   874       H         51.45500000  *  150.53900000  * -43.26600000  *
   875       H         50.66000000  *  151.83800000  * -42.36800000  *
   876       H         52.39300000  *  151.53600000  * -42.12800000  *
   877       C         49.78900000  *  149.37000000  * -41.49900000  *
   878       O         48.71100000  *  149.83600000  * -41.15600000  *
   879       N         49.90500000  *  148.22900000  * -42.16400000  *
   880       H         50.83800000  *  147.88500000  * -42.38200000  *
   881       C         48.74000000  *  147.45400000  * -42.57500000  *
   882       H         47.85700000  *  148.08600000  * -42.62800000  *
   883       H         48.90600000  *  147.02300000  * -43.58600000  *
   884       H         48.52600000  *  146.61900000  * -41.88800000  *
   885       H         72.54500000  *  137.05800000  * -55.15200000  *
   886       C         72.38600000  *  137.90500000  * -54.47400000  *
   887       O         73.28300000  *  138.71900000  * -54.28600000  *
   888       N         71.20100000  *  138.01500000  * -53.89800000  *
   889       H         70.47300000  *  137.31400000  * -54.05700000  *
   890       C         70.96800000  *  139.10000000  * -52.94900000  *
   891       H         71.50000000  *  140.00600000  * -53.22900000  *
   892       C         69.47700000  *  139.40500000  * -52.82500000  *
   893       H         69.09300000  *  139.71900000  * -53.79200000  *
   894       H         68.93000000  *  138.50600000  * -52.53300000  *
   895       C         69.17800000  *  140.45400000  * -51.81200000  *
   896       N         69.23000000  *  140.42300000  * -50.45900000  *
   897       C         68.94700000  *  141.69100000  * -50.01400000  *
   898       H         68.96900000  *  142.01200000  * -48.98400000  *
   899       N         68.72400000  *  142.47200000  * -51.05500000  *
   900       H         68.47200000  *  143.44500000  * -51.00700000  *
   901       C         68.85400000  *  141.75000000  * -52.15500000  *
   902       H         68.77100000  *  142.12600000  * -53.16500000  *
   903       C         71.52100000  *  138.65700000  * -51.58300000  *
   904       O         72.28000000  *  139.38000000  * -50.94700000  *
   905       N         71.11400000  *  137.47100000  * -51.14500000  *
   906       H         70.37100000  *  137.01600000  * -51.66500000  *
   907       C         71.55500000  *  136.88000000  * -49.87700000  *
   908       H         71.18200000  *  135.84900000  * -49.87900000  *
   909       C         73.07600000  *  136.85300000  * -49.83700000  *
   910       H         73.53100000  *  137.83300000  * -49.86900000  *
   911       H         73.36600000  *  136.47900000  * -48.85100000  *
   912       C         73.64700000  *  135.85900000  * -50.81700000  *
   913       H         73.29800000  *  134.87100000  * -50.67200000  *
   914       H         73.21600000  *  136.10500000  * -51.78700000  *
   915       C         75.11700000  *  136.08400000  * -50.99900000  *
   916       H         75.61200000  *  135.95400000  * -50.03300000  *
   917       H         75.49500000  *  135.33200000  * -51.69500000  *
   918       N         75.35800000  *  137.42700000  * -51.50600000  *
   919       H         74.62100000  *  138.12700000  * -51.38200000  *
   920       C         76.54800000  *  137.85900000  * -51.89000000  *
   921       N         77.59300000  *  137.04400000  * -51.81500000  *
   922       H         77.44700000  *  136.21200000  * -51.26800000  *
   923       H         78.49900000  *  137.44300000  * -51.92100000  *
   924       N         76.69000000  *  139.09300000  * -52.35600000  *
   925       H         75.86000000  *  139.69200000  * -52.33800000  *
   926       H         77.56200000  *  139.47800000  * -52.67100000  *
   927       C         71.03700000  *  137.42400000  * -48.54200000  *
   928       O         71.18700000  *  136.76800000  * -47.50900000  *
   929       N         70.43700000  *  138.60400000  * -48.51600000  *
   930       H         70.32800000  *  139.16900000  * -49.34700000  *
   931       C         69.93700000  *  139.07600000  * -47.23100000  *
   932       H         69.76500000  *  138.24900000  * -46.54100000  *
   933       C         70.93500000  *  140.04200000  * -46.56200000  *
   934       H         71.90900000  *  139.56600000  * -46.50900000  *
   935       H         71.04400000  *  140.94300000  * -47.17900000  *
   936       C         70.51300000  *  140.42800000  * -45.14700000  *
   937       O         70.17200000  *  139.51500000  * -44.35500000  *
   938       O         70.51000000  *  141.64400000  * -44.82500000  *
   939       C         68.58700000  *  139.73400000  * -47.37800000  *
   940       O         68.35000000  *  140.81000000  * -46.83500000  *
   941       N         67.68700000  *  139.08300000  * -48.11000000  *
   942       H         67.94300000  *  138.20800000  * -48.54500000  *
   943       C         66.35900000  *  139.64900000  * -48.29900000  *
   944       H         66.47700000  *  140.66700000  * -48.65900000  *
   945       C         65.54600000  *  138.81300000  * -49.28800000  *
   946       H         65.58300000  *  137.78400000  * -48.94500000  *
   947       H         64.50600000  *  139.14000000  * -49.25500000  *
   948       C         66.02700000  *  138.85500000  * -50.73600000  *
   949       H         67.06400000  *  138.52800000  * -50.78200000  *
   950       C         65.17300000  *  137.91700000  * -51.58300000  *
   951       H         64.15900000  *  138.30500000  * -51.68800000  *
   952       H         65.63400000  *  137.80700000  * -52.55000000  *
   953       H         65.13400000  *  136.93500000  * -51.11000000  *
   954       C         65.92100000  *  140.27700000  * -51.26400000  *
   955       H         66.42000000  *  140.99600000  * -50.63300000  *
   956       H         66.44200000  *  140.27500000  * -52.20900000  *
   957       H         64.88200000  *  140.56100000  * -51.39700000  *
   958       C         65.59400000  *  139.73400000  * -46.98200000  *
   959       O         65.58600000  *  138.79200000  * -46.16600000  *
   960       N         64.95600000  *  140.85500000  * -46.74500000  *
   961       H         64.96300000  *  141.58600000  * -47.44300000  *
   962       C         64.16600000  *  141.06100000  * -45.54600000  *
   963       H         63.55300000  *  140.17000000  * -45.40900000  *
   964       C         65.04400000  *  141.21900000  * -44.28500000  *
   965       H         64.40700000  *  141.28200000  * -43.40100000  *
   966       H         65.63900000  *  140.31400000  * -44.16800000  *
   967       C         65.98400000  *  142.43100000  * -44.28400000  *
   968       H         66.39400000  *  142.58300000  * -45.28000000  *
   969       H         65.43300000  *  143.32100000  * -43.98200000  *
   970       C         67.14100000  *  142.16300000  * -43.31400000  *
   971       H         66.74300000  *  141.87800000  * -42.33700000  *
   972       H         67.72300000  *  141.32700000  * -43.71100000  *
   973       C         68.04500000  *  143.38700000  * -43.15000000  *
   974       H         68.14800000  *  143.88900000  * -44.11800000  *
   975       H         67.56200000  *  144.08900000  * -42.46000000  *
   976       N         69.38200000  *  142.98100000  * -42.64200000  *
   977       H         69.87700000  *  142.42200000  * -43.35000000  *
   978       H         69.94300000  *  143.78800000  * -42.40200000  *
   979       H         69.29100000  *  142.41800000  * -41.80600000  *
   980       C         63.26700000  *  142.23000000  * -45.83500000  *
   981       O         63.63000000  *  143.07500000  * -46.65300000  *
   982       N         62.11200000  *  142.30300000  * -45.18600000  *
   983       C         61.62600000  *  141.34600000  * -44.17100000  *
   984       H         62.10000000  *  141.53200000  * -43.20900000  *
   985       H         61.74500000  *  140.31100000  * -44.47600000  *
   986       C         60.16400000  *  141.66900000  * -44.09500000  *
   987       H         59.73700000  *  141.34900000  * -43.14300000  *
   988       H         59.63700000  *  141.20600000  * -44.93200000  *
   989       C         60.16000000  *  143.18900000  * -44.24800000  *
   990       H         60.51600000  *  143.64900000  * -43.32100000  *
   991       H         59.20200000  *  143.56500000  * -44.57400000  *
   992       C         61.14500000  *  143.38000000  * -45.40300000  *
   993       H         60.63400000  *  143.20500000  * -46.34500000  *
   994       C         61.77100000  *  144.77100000  * -45.44800000  *
   995       O         61.39200000  *  145.58400000  * -46.27300000  *
   996       N         62.72100000  *  145.08700000  * -44.55100000  *
   997       H         62.95800000  *  144.39900000  * -43.85200000  *
   998       C         63.44400000  *  146.38000000  * -44.52900000  *
   999       H         62.71800000  *  147.18800000  * -44.41900000  *
  1000       C         64.41900000  *  146.43600000  * -43.33900000  *
  1001       H         65.09900000  *  145.58600000  * -43.39400000  *
  1002       H         65.01700000  *  147.34500000  * -43.42700000  *
  1003       C         63.74100000  *  146.46200000  * -41.96200000  *
  1004       H         63.05200000  *  147.30700000  * -41.92500000  *
  1005       H         63.17500000  *  145.54400000  * -41.81200000  *
  1006       C         64.76100000  *  146.58600000  * -40.82700000  *
  1007       O         65.80200000  *  145.94300000  * -40.81600000  *
  1008       N         64.50700000  *  147.40100000  * -39.82700000  *
  1009       H         65.19000000  *  147.47300000  * -39.08600000  *
  1010       H         63.67600000  *  147.97200000  * -39.81900000  *
  1011       C         64.25200000  *  146.67100000  * -45.81100000  *
  1012       O         64.41000000  *  147.82500000  * -46.19800000  *
  1013       N         64.75900000  *  145.62800000  * -46.47200000  *
  1014       H         64.49400000  *  144.70600000  * -46.15600000  *
  1015       C         65.53400000  *  145.69100000  * -47.71400000  *
  1016       H         66.09400000  *  146.62700000  * -47.74900000  *
  1017       C         66.55200000  *  144.52000000  * -47.74300000  *
  1018       H         66.05500000  *  143.59200000  * -47.47100000  *
  1019       H         66.92400000  *  144.39300000  * -48.75700000  *
  1020       C         67.78100000  *  144.71700000  * -46.86400000  *
  1021       O         68.08600000  *  145.80300000  * -46.40200000  *
  1022       N         68.53500000  *  143.67300000  * -46.59600000  *
  1023       H         69.40200000  *  143.82700000  * -46.10800000  *
  1024       H         68.28900000  *  142.72400000  * -46.86200000  *
  1025       C         64.63200000  *  145.70100000  * -48.96600000  *
  1026       O         65.15600000  *  145.61000000  * -50.07400000  *
  1027       N         63.30000000  *  145.80300000  * -48.83400000  *
  1028       H         62.89500000  *  145.87300000  * -47.90900000  *
  1029       C         62.40600000  *  145.84500000  * -49.97900000  *
  1030       H         62.94700000  *  145.74800000  * -50.91900000  *
  1031       C         61.36900000  *  144.72100000  * -49.88900000  *
  1032       H         60.76900000  *  144.86100000  * -48.99200000  *
  1033       H         60.74400000  *  144.79800000  * -50.77200000  *
  1034       C         62.03600000  *  143.32400000  * -49.85900000  *
  1035       H         62.67100000  *  143.24000000  * -48.98800000  *
  1036       C         61.00200000  *  142.26000000  * -49.77100000  *
  1037       H         60.24600000  *  142.42800000  * -50.53400000  *
  1038       H         61.44700000  *  141.27100000  * -49.89000000  *
  1039       H         60.52000000  *  142.31900000  * -48.79800000  *
  1040       C         62.89500000  *  143.12600000  * -51.08400000  *
  1041       H         63.82900000  *  143.66800000  * -50.95600000  *
  1042       H         63.12900000  *  142.06900000  * -51.20900000  *
  1043       H         62.39300000  *  143.49200000  * -51.96600000  *
  1044       C         61.76300000  *  147.21800000  * -49.95200000  *
  1045       O         61.15000000  *  147.60200000  * -48.96600000  *
  1046       N         61.90400000  *  147.99000000  * -51.02300000  *
  1047       H         62.39700000  *  147.61900000  * -51.83000000  *
  1048       C         61.43900000  *  149.37600000  * -51.06500000  *
  1049       H         61.06300000  *  149.68600000  * -50.09100000  *
  1050       C         62.58300000  *  150.30600000  * -51.44600000  *
  1051       H         62.91400000  *  150.05900000  * -52.45600000  *
  1052       H         62.18800000  *  151.31900000  * -51.44300000  *
  1053       C         63.78600000  *  150.24400000  * -50.50600000  *
  1054       H         64.24800000  *  149.26000000  * -50.56000000  *
  1055       C         64.77100000  *  151.28900000  * -50.99400000  *
  1056       H         64.39200000  *  152.28000000  * -50.75500000  *
  1057       H         65.73200000  *  151.12400000  * -50.52100000  *
  1058       H         64.90100000  *  151.22800000  * -52.07000000  *
  1059       C         63.43100000  *  150.55000000  * -49.05300000  *
  1060       H         62.83600000  *  149.73400000  * -48.65000000  *
  1061       H         64.33300000  *  150.63200000  * -48.45300000  *
  1062       H         62.86600000  *  151.48100000  * -48.98700000  *
  1063       C         60.30900000  *  149.54300000  * -52.05700000  *
  1064       O         60.39400000  *  149.06700000  * -53.17400000  *
  1065       N         59.26800000  *  150.25600000  * -51.67700000  *
  1066       H         59.36500000  *  150.76300000  * -50.80000000  *
  1067       C         58.08300000  *  150.44700000  * -52.50800000  *
  1068       H         58.17300000  *  149.92400000  * -53.45700000  *
  1069       C         56.81900000  *  149.90600000  * -51.78600000  *
  1070       H         55.94300000  *  150.08700000  * -52.41500000  *
  1071       C         56.95000000  *  148.40400000  * -51.54300000  *
  1072       H         57.75300000  *  148.18300000  * -50.83300000  *
  1073       H         56.01300000  *  148.00400000  * -51.15200000  *
  1074       H         57.15800000  *  147.91500000  * -52.48900000  *
  1075       C         56.64700000  *  150.60600000  * -50.43300000  *
  1076       H         57.48200000  *  150.38000000  * -49.77500000  *
  1077       H         56.60500000  *  151.68300000  * -50.57600000  *
  1078       C         55.37000000  *  150.22200000  * -49.68600000  *
  1079       H         55.48900000  *  149.24800000  * -49.22200000  *
  1080       H         55.17000000  *  150.96500000  * -48.91000000  *
  1081       H         54.52900000  *  150.16800000  * -50.38500000  *
  1082       C         57.87200000  *  151.93000000  * -52.81700000  *
  1083       O         58.38200000  *  152.79400000  * -52.10000000  *
  1084       N         57.14900000  *  152.22000000  * -53.89700000  *
  1085       H         56.70500000  *  151.48200000  * -54.43300000  *
  1086       C         56.84100000  *  153.60200000  * -54.22700000  *
  1087       H         57.16800000  *  154.27800000  * -53.43100000  *
  1088       C         57.50400000  *  154.05300000  * -55.54100000  *
  1089       H         57.21800000  *  155.07000000  * -55.80500000  *
  1090       H         58.58200000  *  154.04400000  * -55.38800000  *
  1091       C         57.19300000  *  153.14600000  * -56.70100000  *
  1092       O         56.13500000  *  152.53500000  * -56.76400000  *
  1093       N         58.11500000  *  153.07200000  * -57.64100000  *
  1094       H         57.83300000  *  152.61700000  * -58.48600000  *
  1095       H         58.88600000  *  153.71500000  * -57.62100000  *
  1096       C         55.33100000  *  153.75800000  * -54.32100000  *
  1097       O         54.57600000  *  152.79900000  * -54.11400000  *
  1098       N         54.88500000  *  154.97100000  * -54.62100000  *
  1099       H         55.52100000  *  155.73600000  * -54.79200000  *
  1100       C         53.46400000  *  155.24700000  * -54.72300000  *
  1101       H         52.92700000  *  154.82600000  * -53.87200000  *
  1102       C         53.20900000  *  156.78000000  * -54.75500000  *
  1103       H         52.16900000  *  156.98000000  * -55.02600000  *
  1104       C         53.47800000  *  157.39700000  * -53.41000000  *
  1105       H         54.52100000  *  157.25500000  * -53.13000000  *
[...]
 1005  H   0.83035
 1006  C   1.06521   0.79975   0.73167   0.79663
 1007  O   1.87710   1.39902   1.58722   1.83542
 1008  N   1.52724   1.33476   1.43774   1.30082
 1009  H   0.65698
 1010  H   0.66195
 1011  C   1.08305   0.75361   0.78220   0.81845
 1012  O   1.88423   1.66409   1.31221   1.72673
 1013  N   1.55159   1.50905   1.20166   1.30183
 1014  H   0.66679
 1015  C   1.07259   0.94563   1.09476   0.82079
 1016  H   0.80441
 1017  C   1.07081   1.04894   1.09062   1.16605
 1018  H   0.83168
 1019  H   0.79568
 1020  C   1.05804   0.80517   0.76632   0.75564
 1021  O   1.87564   1.77132   1.39640   1.62175
 1022  N   1.53109   1.31480   1.19534   1.58289
 1023  H   0.66758
 1024  H   0.65483
 1025  C   1.08705   0.78521   0.72002   0.85275
 1026  O   1.87876   1.76649   1.61088   1.38116
 1027  N   1.54081   1.12615   1.66377   1.18341
 1028  H   0.65338
 1029  C   1.06983   0.96897   0.97959   0.97488
 1030  H   0.81125
 1031  C   1.06730   1.06462   0.99786   1.17275
 1032  H   0.83711
 1033  H   0.84829
 1034  C   1.04099   1.01178   0.94639   1.06205
 1035  H   0.85576
 1036  C   1.04920   1.12589   1.11843   1.17081
 1037  H   0.84505
 1038  H   0.84919
 1039  H   0.86550
 1040  C   1.05153   1.14158   1.17165   1.09921
 1041  H   0.84459
 1042  H   0.85782
 1043  H   0.85000
 1044  C   1.07662   0.74929   0.84248   0.75576
 1045  O   1.87201   1.53789   1.79720   1.44403
 1046  N   1.54570   1.55196   1.17268   1.25139
 1047  H   0.64554
 1048  C   1.06441   0.98628   0.82902   1.09927
 1049  H   0.81398
 1050  C   1.06411   1.02853   1.10421   1.12425
 1051  H   0.84587
 1052  H   0.84081
 1053  C   1.04770   0.97137   1.06961   0.96641
 1054  H   0.86507
 1055  C   1.05399   1.12946   1.12763   1.16259
 1056  H   0.84662
 1057  H   0.84941
 1058  H   0.85888
 1059  C   1.05447   1.17500   1.17450   1.04932
 1060  H   0.84057
 1061  H   0.85219
 1062  H   0.84800
 1063  C   1.07406   0.79964   0.74404   0.81694
 1064  O   1.86696   1.83079   1.62358   1.34710
 1065  N   1.54024   1.19634   1.46384   1.29694
 1066  H   0.64514
 1067  C   1.07605   0.88919   1.00697   1.04189
 1068  H   0.80962
 1069  C   1.06433   1.01552   0.99293   1.01982
 1070  H   0.85035
 1071  C   1.05461   1.18108   1.03417   1.17654
 1072  H   0.84341
 1073  H   0.84525
 1074  H   0.85311
 1075  C   1.05400   1.06966   1.12055   1.03100
 1076  H   0.84539
 1077  H   0.86068
 1078  C   1.05242   1.08952   1.15720   1.13174
 1079  H   0.84837
 1080  H   0.87823
 1081  H   0.84708
 1082  C   1.08619   0.74322   0.88793   0.74306
 1083  O   1.88699   1.56750   1.57580   1.55566
 1084  N   1.54293   1.50774   1.14384   1.33797
 1085  H   0.64341
 1086  C   1.06241   0.97204   0.88465   1.03720
 1087  H   0.80384
 1088  C   1.07264   1.18103   1.12846   1.02439
 1089  H   0.80893
 1090  H   0.80489
 1091  C   1.06086   0.76169   0.77066   0.82326
 1092  O   1.88013   1.35531   1.56913   1.83551
 1093  N   1.53415   1.29773   1.49502   1.27236
 1094  H   0.67150
 1095  H   0.66552
 1096  C   1.08289   0.88491   0.75941   0.71318
 1097  O   1.88778   1.65401   1.46835   1.58839
 1098  N   1.54006   1.14515   1.19752   1.67227
 1099  H   0.66325
 1100  C   1.08558   0.83722   1.05806   1.08263
 1101  H   0.80357
 1102  C   1.08427   0.99126   0.86696   0.88985
 1103  H   0.84715
 1104  C   1.05381   1.18398   1.18025   1.05429
 1105  H   0.84133
 1106  H   0.82421
 1107  H   0.82927
 1108  O   1.84877   1.59252   1.82305   1.34535
 1109  H   0.64245
 1110  C   1.07332   0.78891   0.75542   0.82402
 1111  O   1.87785   1.27994   1.68905   1.84877
 1112  N   1.53329   1.19336   1.53467   1.21094
 1113  H   0.66717
 1114  C   1.05709   1.15374   1.13337   0.89312
 1115  H   0.83546
 1116  H   0.83778
 1117  H   0.83543
 1118  H   0.83985
 1119  C   1.10503   0.75509   0.73547   0.91345
 1120  O   1.88315   1.71079   1.59655   1.48266
 1121  N   1.54489   1.42812   1.34567   1.20837
 1122  H   0.65362
 1123  C   1.08083   0.93075   1.08478   0.93129
 1124  H   0.80882
 1125  C   1.07310   1.07904   0.95364   0.98258
 1126  H   0.84415
 1127  C   1.05811   1.18700   1.08408   1.12924
 1128  H   0.84362
 1129  H   0.84854
 1130  H   0.85224
 1131  C   1.05414   1.07568   1.13483   1.01854
 1132  H   0.85374
 1133  H   0.85404
 1134  C   1.04917   1.14388   1.15091   1.09065
 1135  H   0.85012
 1136  H   0.85958
 1137  H   0.84951
 1138  C   1.07223   0.84184   0.73655   0.77745
 1139  O   1.87772   1.89052   1.52101   1.39096
 1140  N   1.54500   1.10269   1.52668   1.33582
 1141  H   0.63179
 1142  C   1.06988   0.84618   1.05348   1.03790
 1143  H   0.81812
 1144  C   1.06004   1.09277   1.04610   1.09591
 1145  H   0.83671
 1146  H   0.84639
 1147  C   1.05104   1.08541   1.04448   1.07794
 1148  H   0.85013
 1149  H   0.84492
 1150  C   1.05934   1.08187   1.05458   1.09833
 1151  H   0.84083
 1152  H   0.83220
 1153  C   1.07886   1.02175   0.99764   1.07420
 1154  H   0.81142
 1155  H   0.83404
 1156  N   1.45946   1.23123   1.22959   1.25686
 1157  H   0.69401
 1158  H   0.69977
 1159  H   0.68661
 1160  C   1.07830   0.77978   0.75059   0.82544
 1161  O   1.88112   1.77257   1.69306   1.29050
 1162  N   1.54481   1.32900   1.42534   1.23091
 1163  H   0.64043
 1164  C   1.07032   0.91891   0.95785   1.02906
 1165  H   0.83201
 1166  C   1.06274   1.10004   1.01946   1.13305
 1167  H   0.83527
 1168  H   0.84487
 1169  C   1.05370   1.07068   0.96111   0.96345
 1170  H   0.85961
 1171  C   1.06223   1.16613   1.13942   1.09239
 1172  H   0.85194
 1173  H   0.84924
 1174  H   0.85270
 1175  C   1.05739   1.18267   1.13695   1.08873
 1176  H   0.85342
 1177  H   0.84838
 1178  H   0.85431
 1179  C   1.08484   0.79144   0.79831   0.75880
 1180  O   1.88088   1.63453   1.59888   1.53716
 1181  N   1.54398   1.37117   1.43675   1.15935
 1182  H   0.64708
 1183  C   1.06759   0.91373   0.92766   1.05119
 1184  H   0.82874
 1185  C   1.05974   1.16213   1.08763   1.15304
 1186  H   0.82123
 1187  H   0.83336
 1188  H   0.82877
 1189  C   1.08770   0.79096   0.78195   0.74715
 1190  O   1.87413   1.84974   1.36708   1.58014
 1191  N   1.54603   1.16572   1.33818   1.48263
 1192  H   0.67348
 1193  C   1.07422   0.87480   1.08110   0.93734
 1194  H   0.81348
 1195  C   1.07905   1.13985   1.19172   1.00053
 1196  H   0.81231
 1197  H   0.82710
 1198  C   1.07320   0.75033   0.72531   0.69062
 1199  O   1.88671   1.79039   1.46813   1.58762
 1200  O   1.87547   1.69817   1.50579   1.79213
 1201  C   1.09126   0.82049   0.79766   0.74411
 1202  O   1.88777   1.27259   1.81809   1.55778
 1203  N   1.56741   1.29331   1.16802   1.54619
 1204  H   0.67835
 1205  C   1.07919   1.01889   0.91993   0.95267
 1206  H   0.84000
 1207  C   1.05569   1.07659   1.20324   0.96313
 1208  H   0.81270
 1209  H   0.82086
 1210  C   1.07495   0.97436   0.97719   0.96972
 1211  C   1.09010   1.04118   1.04178   1.01457
 1212  H   0.83981
 1213  C   1.08859   0.98557   1.06185   1.01096
 1214  H   0.84254
 1215  C   1.08746   1.05971   0.99193   1.03250
 1216  H   0.84793
 1217  C   1.08944   1.03742   1.03610   0.98950
 1218  H   0.83156
 1219  C   1.08736   0.98584   1.06406   1.02327
 1220  H   0.83762
 1221  C   1.09012   0.80290   0.77265   0.76266
 1222  O   1.88526   1.44458   1.55988   1.71422
 1223  N   1.53944   1.41508   1.43789   1.13680
 1224  H   0.68508
 1225  C   1.06827   0.98849   1.06816   0.98135
 1226  H   0.81651
 1227  H   0.80616
 1228  C   1.07972   0.82847   0.77874   0.70354
 1229  O   1.87709   1.84056   1.32366   1.60944
 1230  N   1.55906   1.30141   1.23406   1.44949
 1231  H   0.67425
 1232  C   1.07774   0.89800   1.03279   0.96982
 1233  H   0.83209
 1234  C   1.06798   1.11425   0.95094   1.17380
 1235  H   0.84084
 1236  H   0.82908
 1237  C   1.05178   1.03172   0.95882   1.01271
 1238  H   0.86138
 1239  C   1.05585   1.16824   1.06986   1.16070
 1240  H   0.85836
 1241  H   0.84318
 1242  H   0.85871
 1243  C   1.05566   1.17194   1.18984   1.04513
 1244  H   0.84141
 1245  H   0.83853
 1246  H   0.85881
 1247  C   1.09508   0.85778   0.76653   0.72715
 1248  O   1.88127   1.32449   1.78611   1.59313
 1249  N   1.58210   1.28180   1.23280   1.52136
 1250  H   0.66082
 1251  C   1.06867   0.96473   0.99755   0.95391
 1252  H   0.83594
 1253  C   1.05859   1.13937   1.09712   1.17430
 1254  H   0.84402
 1255  H   0.80978
 1256  H   0.81090
 1257  C   1.07570   0.83426   0.75243   0.78158
 1258  O   1.88397   1.49921   1.59889   1.64924
 1259  N   1.54300   1.31150   1.51238   1.14409
 1260  H   0.67635
 1261  C   1.06250   0.92406   1.14576   1.10583
 1262  H   0.82623
 1263  H   0.82964
 1264  H   0.83898
 1265  H   0.84128
 1266  C   1.10475   0.72497   0.79433   0.87710
 1267  O   1.88386   1.53297   1.36166   1.88307
 1268  N   1.54279   1.48750   1.35118   1.14845
 1269  H   0.67729
 1270  C   1.07278   1.11684   0.96755   0.82286
 1271  H   0.80269
 1272  C   1.05754   1.09032   1.02745   1.15026
 1273  H   0.83871
 1274  H   0.82093
 1275  C   1.06445   0.97767   0.95049   0.96838
 1276  C   1.08300   1.01997   0.99413   1.05922
 1277  H   0.83860
 1278  C   1.08250   1.04671   1.02705   0.99728
 1279  H   0.84385
 1280  C   1.08140   1.00633   1.05578   1.02616
 1281  H   0.84922
 1282  C   1.08074   1.02462   1.00413   1.05517
 1283  H   0.85493
 1284  C   1.08281   1.05965   1.02671   0.99681
 1285  H   0.84052
 1286  C   1.07993   0.76689   0.78612   0.79907
 1287  O   1.88373   1.53963   1.68100   1.53426
 1288  N   1.53627   1.17510   1.34743   1.43092
 1289  H   0.67312
 1290  C   1.05781   1.14255   0.97554   0.99859
 1291  H   0.81539
 1292  H   0.78932
 1293  C   1.07404   0.78872   0.75743   0.80177
 1294  O   1.88079   1.53982   1.38128   1.84100
 1295  N   1.53626   1.41104   1.37822   1.17762
 1296  H   0.65095
 1297  C   1.07413   1.00252   1.19824   0.87799
 1298  H   0.81271
 1299  H   0.79460
 1300  C   1.08217   0.77425   0.74499   0.80732
 1301  O   1.88288   1.52178   1.53273   1.73134
 1302  N   1.56472   1.44500   1.16608   1.26724
 1303  C   1.07077   1.06934   0.87068   1.05638
 1304  H   0.83609
 1305  H   0.84085
 1306  C   1.05708   1.04759   1.13535   1.05905
 1307  H   0.84536
 1308  H   0.80835
 1309  C   1.06097   1.08134   0.98361   1.17227
 1310  H   0.83544
 1311  H   0.81938
 1312  C   1.07355   1.05288   1.00096   0.86827
 1313  H   0.81316
 1314  C   1.08823   0.76367   0.76850   0.82878
 1315  O   1.88394   1.42689   1.43551   1.88334
 1316  N   1.54311   1.40339   1.48371   1.11753
 1317  H   0.64350
 1318  C   1.08221   1.04975   1.11410   0.89109
 1319  H   0.80091
 1320  H   0.78739
 1321  C   1.08824   0.82550   0.73033   0.77837
 1322  O   1.88492   1.70322   1.72963   1.32942
 1323  N   1.55111   1.23253   1.41128   1.34465
 1324  H   0.68843
 1325  C   1.07568   0.85981   1.06399   0.97849
 1326  H   0.82210
 1327  C   1.05960   1.16898   1.07554   0.97641
 1328  H   0.83491
 1329  H   0.83869
 1330  C   1.05818   1.13843   1.07477   1.02388
 1331  H   0.82471
 1332  H   0.87155
 1333  C   1.06374   1.08745   1.09998   0.78142
 1334  H   0.85041
 1335  H   0.81939
 1336  N   1.53281   1.62695   1.28991   1.09341
 1337  H   0.64881
 1338  C   0.97598   0.83629   0.80293   0.79449
 1339  N   1.50144   1.56337   1.25848   1.24813
 1340  H   0.67463
 1341  H   0.62636
 1342  N   1.50406   1.55701   1.35352   1.14119
 1343  H   0.64460
 1344  H   0.63722
 1345  C   1.08249   0.75732   0.77383   0.84370
 1346  O   1.88760   1.48117   1.64730   1.56813
 1347  N   1.54319   1.54511   1.19777   1.24114
 1348  H   0.67341
 1349  C   1.08996   1.00027   1.00961   0.91788
 1350  H   0.79944
 1351  C   1.08603   0.92900   0.92590   0.87520
 1352  H   0.84854
 1353  C   1.05837   1.09834   1.12891   1.20345
 1354  H   0.82634
 1355  H   0.83364
 1356  H   0.83070
 1357  O   1.84255   1.58431   1.64211   1.57252
 1358  H   0.62488
 1359  C   1.07892   0.80842   0.78932   0.75835
 1360  O   1.88637   1.54266   1.79541   1.37658
 1361  N   1.55278   1.32706   1.29598   1.37723
 1362  H   0.65185
 1363  C   1.07394   0.98889   0.92728   0.99347
 1364  H   0.81758
 1365  C   1.05775   1.09600   1.06832   1.08617
 1366  H   0.84159
 1367  H   0.82948
 1368  C   1.06141   0.97142   0.97473   1.05772
 1369  C   1.08297   0.97304   1.08024   0.99421
 1370  H   0.84397
 1371  C   1.08277   1.08126   0.99401   1.01016
 1372  H   0.80602
 1373  C   1.06583   0.82555   0.89607   0.91601
 1374  O   1.84123   1.47025   1.54186   1.69684
 1375  H   0.63829
 1376  C   1.07407   0.99092   1.09176   1.06849
 1377  H   0.84752
 1378  C   1.08140   1.06407   0.99897   0.99770
 1379  H   0.85899
 1380  C   1.08197   0.77644   0.73400   0.82108
 1381  O   1.88473   1.39073   1.55628   1.82938
 1382  N   1.55034   1.20063   1.60157   1.14808
 1383  H   0.66061
 1384  C   1.08720   1.11705   1.03477   0.83753
 1385  H   0.82148
 1386  C   1.08252   0.83228   0.89079   1.00013
 1387  H   0.86813
 1388  C   1.05719   1.09879   1.14109   1.18965
 1389  H   0.83117
 1390  H   0.84561
 1391  H   0.84164
 1392  O   1.84705   1.32378   1.76614   1.66686
 1393  H   0.61655
 1394  C   1.08196   0.82818   0.76388   0.79188
 1395  O   1.88731   1.29168   1.70670   1.67700
 1396  N   1.54289   1.22794   1.27108   1.47588
 1397  H   0.64954
 1398  C   1.07066   0.98411   1.04040   1.07604
 1399  H   0.84426
 1400  H   0.80879
 1401  C   1.07020   0.85072   0.72025   0.75161
 1402  O   1.88497   1.70077   1.45752   1.55934
 1403  N   1.55350   1.14745   1.51369   1.33248
 1404  H   0.67999
 1405  C   1.07065   0.82918   0.98728   1.12892
 1406  H   0.81427
 1407  C   1.05326   1.16395   0.98981   1.05226
 1408  H   0.83922
 1409  H   0.83632
 1410  C   1.05975   1.20520   1.01159   1.13827
 1411  H   0.84339
 1412  H   0.82608
 1413  C   1.06653   0.72240   0.72017   0.72793
 1414  O   1.88745   1.47292   1.82355   1.63782
 1415  O   1.88501   1.51821   1.58591   1.81428
 1416  C   1.08686   0.77112   0.86273   0.75463
 1417  O   1.88734   1.64836   1.65298   1.40939
 1418  N   1.54582   1.31036   1.19191   1.47863
 1419  H   0.65315
 1420  C   1.07213   1.06262   0.88130   1.00745
 1421  H   0.84374
 1422  C   1.05449   1.01870   1.03223   0.97100
 1423  H   0.83617
 1424  C   1.05591   1.17743   1.04883   1.19322
 1425  H   0.84548
 1426  H   0.83588
 1427  H   0.83803
 1428  C   1.05457   1.18126   1.16760   1.06137
 1429  H   0.84062
 1430  H   0.83991
 1431  H   0.85207
 1432  C   1.07568   0.77104   0.73155   0.84219
 1433  O   1.88367   1.36370   1.63754   1.76941
 1434  N   1.53827   1.27321   1.47289   1.21103
 1435  H   0.66889
 1436  C   1.07707   1.00695   1.05446   0.86815
 1437  H   0.82263
 1438  C   1.06064   1.02674   1.01609   0.97677
 1439  H   0.84040
 1440  C   1.05419   1.18413   1.09813   1.12140
 1441  H   0.84113
 1442  H   0.84080
 1443  H   0.85069
 1444  C   1.05737   1.18970   1.16660   1.05253
 1445  H   0.84638
 1446  H   0.83560
 1447  H   0.83874
 1448  C   1.08151   0.80673   0.78625   0.75098
 1449  O   1.88312   1.81172   1.47369   1.46045
 1450  N   1.53598   1.23689   1.43132   1.31654
 1451  H   0.66464
 1452  C   1.07959   0.90429   0.96814   1.14836
 1453  H   0.80517
 1454  C   1.07971   0.93540   0.82462   0.98301
 1455  H   0.86673
 1456  C   1.05745   1.09506   1.13578   1.19626
 1457  H   0.82482
 1458  H   0.82213
 1459  H   0.84134
 1460  O   1.84757   1.47783   1.49385   1.78185
 1461  H   0.64864
 1462  C   1.07069   0.75363   0.82652   0.79805
 1463  O   1.88054   1.50732   1.88271   1.36455
 1464  N   1.53714   1.55006   1.12173   1.29443
 1465  H   0.65700
 1466  C   1.05411   1.16775   0.87318   1.13581
 1467  H   0.83023
 1468  H   0.83680
 1469  H   0.85126
 1470  H   0.82735
 1471  C   1.10846   0.72194   0.77570   0.90300
 1472  O   1.87917   1.50027   1.39718   1.89102
 1473  N   1.54806   1.50780   1.35864   1.13688
 1474  H   0.67053
 1475  C   1.07821   1.08305   1.04081   0.80190
 1476  H   0.80370
 1477  C   1.05903   1.13427   0.99956   1.10164
 1478  H   0.81853
 1479  H   0.82213
 1480  C   1.06602   0.97583   0.99258   1.00492
 1481  C   1.08223   0.99073   1.02509   1.00498
 1482  H   0.83757
 1483  C   1.07635   1.10500   1.04961   1.06604
 1484  H   0.82046
 1485  C   1.07249   0.88649   0.88221   0.88002
 1486  O   1.83869   1.35496   1.61297   1.73279
 1487  H   0.61920
 1488  C   1.07859   0.98863   1.09948   1.09648
 1489  H   0.82141
 1490  C   1.08807   1.07850   0.97917   0.96947
 1491  H   0.83527
 1492  C   1.08086   0.79995   0.76891   0.79198
 1493  O   1.88631   1.81387   1.69945   1.28035
 1494  N   1.53472   1.25589   1.50895   1.18459
 1495  H   0.67094
 1496  C   1.06143   0.92033   1.08956   1.16675
 1497  H   0.83439
 1498  H   0.82976
 1499  H   0.83853
 1500  H   0.82500
 1501  C   1.10799   0.78631   0.88385   0.71627
 1502  O   1.88013   1.43038   1.87071   1.50910
 1503  N   1.55064   1.37513   1.18538   1.44524
 1504  H   0.64432
 1505  C   1.07868   0.96566   0.86315   1.12896
 1506  H   0.81508
 1507  C   1.05975   0.97990   0.99671   1.07637
 1508  H   0.84640
 1509  C   1.05206   1.15821   1.06254   1.17608
 1510  H   0.84451
 1511  H   0.84448
 1512  H   0.84179
 1513  C   1.04779   0.99992   1.12971   1.08510
 1514  H   0.86667
 1515  H   0.85361
 1516  C   1.04901   1.11598   1.12968   1.14933
 1517  H   0.85850
 1518  H   0.85750
 1519  H   0.84118
 1520  C   1.07240   0.85966   0.73792   0.75017
 1521  O   1.87626   1.57618   1.55614   1.67372
 1522  N   1.54215   1.18492   1.41747   1.37458
 1523  H   0.66207
 1524  C   1.07134   0.87897   1.16323   1.10822
 1525  H   0.84317
 1526  H   0.83231
 1527  H   0.83430
 1528  H   0.82783
 1529  C   1.10747   0.84817   0.73335   0.82091
 1530  O   1.88533   1.81644   1.62642   1.36677
 1531  N   1.53775   1.25349   1.40296   1.30525
 1532  H   0.64792
 1533  C   1.05917   0.89143   1.04085   1.02440
 1534  H   0.81941
 1535  C   1.06062   1.03212   1.11507   1.11413
 1536  H   0.82487
 1537  H   0.84749
 1538  C   1.04447   0.99031   0.96300   1.06041
 1539  H   0.87972
 1540  C   1.05445   1.16231   1.06819   1.18051
 1541  H   0.83899
 1542  H   0.84790
 1543  H   0.85380
 1544  C   1.05254   1.12362   1.17280   1.10796
 1545  H   0.85744
 1546  H   0.84685
 1547  H   0.84158
 1548  C   1.07845   0.72954   0.86442   0.77479
 1549  O   1.88174   1.57722   1.45179   1.73562
 1550  N   1.54007   1.57168   1.21315   1.19364
 1551  H   0.66041
 1552  C   1.07169   1.02191   0.93424   0.96023
 1553  H   0.81207
 1554  C   1.05669   1.17021   1.07927   0.99301
 1555  H   0.82468
 1556  H   0.82646
 1557  C   1.05680   1.12988   1.08833   1.03616
 1558  H   0.85356
 1559  H   0.82384
 1560  C   1.06368   1.15812   0.94511   0.90237
 1561  H   0.81568
 1562  H   0.83638
 1563  N   1.52413   1.16124   1.42462   1.39829
 1564  H   0.63937
 1565  C   0.99154   0.79153   0.81259   0.81870
 1566  N   1.51738   1.11698   1.46807   1.48671
 1567  H   0.65518
 1568  H   0.63907
 1569  N   1.50861   1.25115   1.39996   1.41130
 1570  H   0.64167
 1571  H   0.64062
 1572  C   1.08221   0.87364   0.77362   0.74763
 1573  O   1.88841   1.60474   1.59471   1.52022
 1574  N   1.53998   1.17428   1.27253   1.51863
 1575  H   0.65814
 1576  C   1.07423   0.85744   1.08546   1.03732
 1577  H   0.82108
 1578  C   1.06140   1.16436   1.09776   0.98430
 1579  H   0.84262
 1580  H   0.83790
 1581  C   1.04757   1.08151   0.95992   0.94846
 1582  H   0.86922
 1583  C   1.05587   1.17173   1.16285   1.07774
 1584  H   0.85386
 1585  H   0.86092
 1586  H   0.84740
 1587  C   1.05670   1.15707   1.09315   1.15806
 1588  H   0.84991
 1589  H   0.86055
 1590  H   0.84804
 1591  C   1.08319   0.71425   0.76155   0.70258
 1592  O   1.88391   1.46803   1.86973   1.62368
 1593  O   1.88754   1.54766   1.59476   1.80347

 **********************
 *                    *
 * JOB ENDED NORMALLY *
 *                    *
 **********************



 TOTAL JOB TIME:            42.78 SECONDS

 == MOPAC DONE ==
