 *******************************************************************************
 **                                                                           **
 **                              MOPAC v23.2.2                                **
 **                                                                           **
 *******************************************************************************
 **          Digital Object Identifier (DOI): 10.5281/zenodo.6511958          **
 **    Visit the DOI location for information on how to cite this program.    **
 *******************************************************************************

                              PM7 CALCULATION RESULTS

 *******************************************************************************
 *  CALCULATION DONE: (MAX THREADS = 12)             Tue Jan 27 16:08:01 2026  *
 *  PM7        - The PM7 Hamiltonian to be used
 *  MOZYME     - USE LOCALIZED M.O.s IN SOLVING THE SCF EQUATIONS
 *
 *
 *
 *                 CHARGE ON SYSTEM = +2
 *
 *
 *
 *  EPS=78.4   - USE ANDREAS KLAMT'S COSMO IMPLICIT SOLVATION MODEL
 *  1SCF       - DO 1 SCF AND THEN STOP 
 *  T=         - A TIME OF 172800.0 SECONDS REQUESTED
 *  DUMP=N     - RESTART FILE WRITTEN EVERY 7200.0 SECONDS REQUESTED
 *******************************************************************************
PM7 1SCF MOZYME CHARGE=2 EPS=78.4


   ATOM   CHEMICAL          X               Y               Z
  NUMBER   SYMBOL      (ANGSTROMS)     (ANGSTROMS)     (ANGSTROMS)

     1       H         71.69100000  *  165.23700000  * -45.36000000  *
     2       C         70.72700000  *  165.64400000  * -45.02500000  *
     3       O         70.67100000  *  166.69300000  * -44.40000000  *
     4       N         69.64800000  *  164.94600000  * -45.35400000  *
     5       H         69.74300000  *  164.08600000  * -45.86500000  *
     6       C         68.31800000  *  165.37700000  * -44.95100000  *
     7       H         68.30400000  *  166.44500000  * -44.75000000  *
     8       C         67.27900000  *  165.08100000  * -46.05800000  *
     9       H         67.27200000  *  164.02200000  * -46.29800000  *
    10       C         65.89200000  *  165.46600000  * -45.59200000  *
    11       H         65.46400000  *  166.22900000  * -46.24500000  *
    12       H         65.23700000  *  164.60600000  * -45.62700000  *
    13       H         65.87600000  *  165.89500000  * -44.58400000  *
    14       C         67.63700000  *  165.85600000  * -47.31700000  *
    15       H         68.59400000  *  165.52900000  * -47.70800000  *
    16       H         66.87900000  *  165.66900000  * -48.07700000  *
    17       H         67.68800000  *  166.92100000  * -47.10100000  *
    18       C         67.91500000  *  164.66400000  * -43.65700000  *
    19       O         67.55300000  *  165.30600000  * -42.67600000  *
    20       N         67.98400000  *  163.33800000  * -43.65800000  *
    21       H         68.28400000  *  162.85200000  * -44.48600000  *
    22       C         67.62300000  *  162.54400000  * -42.48700000  *
    23       H         67.90600000  *  163.07600000  * -41.58100000  *
    24       C         66.12800000  *  162.23500000  * -42.45900000  *
    25       H         65.92600000  *  161.47400000  * -43.20900000  *
    26       H         65.88500000  *  161.80700000  * -41.48800000  *
    27       C         65.21300000  *  163.39800000  * -42.74000000  *
    28       H         65.33100000  *  164.15700000  * -41.96400000  *
    29       H         65.45900000  *  163.81400000  * -43.69700000  *
    30       C         63.76600000  *  162.97200000  * -42.82400000  *
    31       O         63.44700000  *  162.11400000  * -43.67900000  *
    32       O         62.94800000  *  163.49400000  * -42.03400000  *
    33       C         68.34700000  *  161.22200000  * -42.57700000  *
    34       O         68.73000000  *  160.78800000  * -43.66100000  *
    35       N         68.52400000  *  160.57500000  * -41.43500000  *
    36       H         68.03000000  *  160.89100000  * -40.60600000  *
    37       C         69.17300000  *  159.28200000  * -41.42100000  *
    38       H         69.95100000  *  159.22100000  * -42.17800000  *
    39       C         69.75600000  *  159.01000000  * -40.03200000  *
    40       H         70.21900000  *  159.94300000  * -39.71800000  *
    41       H         68.96300000  *  158.79100000  * -39.31600000  *
    42       C         70.79800000  *  157.89600000  * -39.98300000  *
    43       H         70.31100000  *  156.94100000  * -40.17400000  *
    44       H         71.53800000  *  158.07300000  * -40.76900000  *
    45       C         71.50100000  *  157.83200000  * -38.61800000  *
    46       H         70.74900000  *  157.59000000  * -37.86000000  *
    47       H         72.23100000  *  157.01800000  * -38.63800000  *
    48       C         72.18600000  *  159.16200000  * -38.26900000  *
    49       H         72.83200000  *  159.42500000  * -39.10900000  *
    50       H         71.41200000  *  159.93100000  * -38.15600000  *
    51       N         73.00000000  *  159.10500000  * -37.02500000  *
    52       H         73.70000000  *  158.37000000  * -37.07400000  *
    53       H         73.43800000  *  159.98800000  * -36.79300000  *
    54       H         72.39100000  *  158.85400000  * -36.25100000  *
    55       C         68.06200000  *  158.28700000  * -41.74800000  *
    56       O         67.16300000  *  158.08100000  * -40.94600000  *
    57       N         68.05600000  *  157.70800000  * -42.95300000  *
    58       H         68.87100000  *  157.84100000  * -43.53300000  *
    59       C         67.03400000  *  156.73400000  * -43.40000000  *
    60       H         66.06200000  *  157.23100000  * -43.40700000  *
    61       C         67.32700000  *  156.22800000  * -44.83500000  *
    62       H         68.40500000  *  156.12600000  * -44.95300000  *
    63       C         66.69000000  *  154.86700000  * -45.15500000  *
    64       H         65.61100000  *  154.91200000  * -45.00500000  *
    65       H         66.89800000  *  154.60400000  * -46.18400000  *
    66       H         67.11400000  *  154.07400000  * -44.54000000  *
    67       C         66.81700000  *  157.27000000  * -45.84100000  *
    68       H         65.72600000  *  157.27800000  * -45.84000000  *
    69       H         67.15400000  *  158.24100000  * -45.49500000  *
    70       C         67.31300000  *  157.06900000  * -47.28100000  *
    71       H         66.86700000  *  156.18000000  * -47.72300000  *
    72       H         67.02600000  *  157.92600000  * -47.88600000  *
    73       H         68.39700000  *  156.97700000  * -47.29700000  *
    74       C         66.90900000  *  155.56500000  * -42.42200000  *
    75       O         65.80700000  *  155.22000000  * -41.99300000  *
    76       N         68.04100000  *  154.93800000  * -42.10500000  *
    77       H         68.91700000  *  155.28700000  * -42.47400000  *
    78       C         68.05900000  *  153.67400000  * -41.38700000  *
    79       H         67.42700000  *  153.75400000  * -40.50200000  *
    80       H         67.65900000  *  152.88900000  * -42.02800000  *
    81       C         69.45900000  *  153.26600000  * -40.95700000  *
    82       O         70.46200000  *  153.56900000  * -41.60800000  *
    83       N         69.50300000  *  152.54900000  * -39.84300000  *
    84       H         68.63000000  *  152.33800000  * -39.38000000  *
    85       C         70.70900000  *  151.93300000  * -39.30900000  *
    86       H         71.55600000  *  152.59000000  * -39.50900000  *
    87       C         70.55200000  *  151.78900000  * -37.78600000  *
    88       H         69.68300000  *  151.16700000  * -37.56600000  *
    89       H         71.44300000  *  151.31100000  * -37.39800000  *
    90       C         70.40800000  *  153.15200000  * -37.08400000  *
    91       H         71.26200000  *  153.77500000  * -37.36200000  *
    92       H         69.50400000  *  153.65300000  * -37.43700000  *
    93       C         70.33300000  *  153.02100000  * -35.55400000  *
    94       O         69.50700000  *  152.23100000  * -35.04000000  *
    95       O         71.07100000  *  153.74600000  * -34.84800000  *
    96       C         70.94300000  *  150.60000000  * -40.04500000  *
    97       O         70.18800000  *  149.64100000  * -39.86700000  *
    98       N         71.89600000  *  150.58600000  * -40.98400000  *
    99       H         72.52800000  *  151.37400000  * -41.05000000  *
   100       C         71.94400000  *  149.60900000  * -42.07900000  *
   101       H         70.92500000  *  149.35000000  * -42.37100000  *
   102       H         72.41400000  *  150.09400000  * -42.93500000  *
   103       C         72.70100000  *  148.30500000  * -41.80300000  *
   104       O         73.12400000  *  148.00500000  * -40.68800000  *
   105       N         72.89800000  *  147.52200000  * -42.86800000  *
   106       H         72.48400000  *  147.79600000  * -43.74900000  *
   107       C         73.66400000  *  146.25900000  * -42.87800000  *
   108       H         73.36600000  *  145.65600000  * -42.02000000  *
   109       C         73.36600000  *  145.45300000  * -44.15300000  *
   110       H         74.11900000  *  144.67600000  * -44.28500000  *
   111       C         71.99800000  *  144.79000000  * -44.05800000  *
   112       H         71.21300000  *  145.54500000  * -43.99400000  *
   113       H         71.83800000  *  144.16500000  * -44.93600000  *
   114       H         71.98200000  *  144.15200000  * -43.17500000  *
   115       O         73.37600000  *  146.30900000  * -45.27100000  *
   116       H         73.01700000  *  145.79700000  * -46.03200000  *
   117       C         75.17600000  *  146.44100000  * -42.78000000  *
   118       O         75.81400000  *  145.65800000  * -42.08600000  *
   119       N         75.74000000  *  147.45700000  * -43.44400000  *
   120       H         75.12800000  *  147.98800000  * -44.04400000  *
   121       C         77.19500000  *  147.68000000  * -43.57700000  *
   122       H         77.71900000  *  147.08000000  * -42.83200000  *
   123       C         77.65300000  *  147.20500000  * -44.97000000  *
   124       H         77.23700000  *  147.87700000  * -45.72200000  *
   125       H         78.74000000  *  147.28100000  * -45.03200000  *
   126       C         77.27800000  *  145.77700000  * -45.31600000  *
   127       C         77.68000000  *  144.73000000  * -44.46800000  *
   128       H         78.24900000  *  144.94200000  * -43.57100000  *
   129       C         77.33000000  *  143.40600000  * -44.77200000  *
   130       H         77.62600000  *  142.61100000  * -44.10800000  *
   131       C         76.60100000  *  143.11400000  * -45.94300000  *
   132       O         76.34400000  *  141.82100000  * -46.26600000  *
   133       H         77.00100000  *  141.25400000  * -45.83300000  *
   134       C         76.18200000  *  144.16400000  * -46.78600000  *
   135       H         75.60000000  *  143.94900000  * -47.66800000  *
   136       C         76.52500000  *  145.49300000  * -46.47400000  *
   137       H         76.21000000  *  146.29400000  * -47.12700000  *
   138       C         77.63600000  *  149.13700000  * -43.33100000  *
   139       O         78.74900000  *  149.52200000  * -43.69300000  *
   140       N         76.77000000  *  149.95700000  * -42.73100000  *
   141       H         75.88600000  *  149.58500000  * -42.41700000  *
   142       C         77.00600000  *  151.38000000  * -42.48400000  *
   143       H         77.60400000  *  151.50100000  * -41.58200000  *
   144       H         77.56800000  *  151.79100000  * -43.31300000  *
   145       C         75.70300000  *  152.16400000  * -42.31800000  *
   146       O         74.65100000  *  151.56500000  * -42.07300000  *
   147       N         75.75500000  *  153.49500000  * -42.44900000  *
   148       H         76.58800000  *  153.89400000  * -42.85900000  *
   149       C         74.59200000  *  154.32600000  * -42.21200000  *
   150       H         73.82600000  *  153.78000000  * -41.65800000  *
   151       C         74.95900000  *  155.54800000  * -41.37000000  *
   152       H         75.70700000  *  156.13900000  * -41.89300000  *
   153       C         73.73100000  *  156.40900000  * -41.13300000  *
   154       H         72.94300000  *  155.80300000  * -40.68200000  *
   155       H         73.98600000  *  157.21200000  * -40.45000000  *
   156       H         73.36800000  *  156.84900000  * -42.06500000  *
   157       C         75.54500000  *  155.09600000  * -40.05300000  *
   158       H         76.46000000  *  154.52800000  * -40.19800000  *
   159       H         75.77700000  *  155.95300000  * -39.42300000  *
   160       H         74.80500000  *  154.48400000  * -39.53200000  *
   161       C         74.01900000  *  154.79200000  * -43.53700000  *
   162       O         74.76100000  *  155.18400000  * -44.43700000  *
   163       N         72.69800000  *  154.64900000  * -43.67500000  *
   164       H         72.17100000  *  154.29800000  * -42.88300000  *
   165       C         71.91500000  *  155.09700000  * -44.83200000  *
   166       H         72.56900000  *  155.15100000  * -45.70000000  *
   167       C         70.76000000  *  154.12200000  * -45.15700000  *
   168       H         69.93400000  *  154.29700000  * -44.46800000  *
   169       C         70.26000000  *  154.36700000  * -46.58600000  *
   170       H         71.04600000  *  154.13900000  * -47.30600000  *
   171       H         69.39600000  *  153.73200000  * -46.78800000  *
   172       H         69.96300000  *  155.40700000  * -46.71000000  *
   173       C         71.14500000  *  152.64400000  * -45.02900000  *
   174       H         71.37700000  *  152.40500000  * -43.99000000  *
   175       H         70.29800000  *  152.02700000  * -45.32800000  *
   176       H         72.00600000  *  152.42200000  * -45.65400000  *
   177       C         71.35100000  *  156.48600000  * -44.53900000  *
   178       O         70.62400000  *  156.64000000  * -43.55400000  *
   179       N         71.62500000  *  157.49000000  * -45.37400000  *
   180       H         72.23900000  *  157.32200000  * -46.16900000  *
   181       C         71.01800000  *  158.79600000  * -45.21900000  *
   182       H         70.37900000  *  158.84300000  * -44.33800000  *
   183       C         72.10000000  *  159.86100000  * -45.06900000  *
   184       H         72.79900000  *  159.78100000  * -45.90500000  *
   185       H         71.63400000  *  160.84400000  * -45.14300000  *
   186       C         72.87100000  *  159.84300000  * -43.76800000  *
   187       C         72.34700000  *  160.43100000  * -42.61900000  *
   188       H         71.37700000  *  160.90600000  * -42.66800000  *
   189       C         73.06400000  *  160.45200000  * -41.42500000  *
   190       H         72.63300000  *  160.94600000  * -40.56800000  *
   191       C         74.33000000  *  159.87400000  * -41.37100000  *
   192       O         75.04700000  *  159.90100000  * -40.18700000  *
   193       H         74.69700000  *  160.54100000  * -39.56800000  *
   194       C         74.87500000  *  159.27800000  * -42.50300000  *
   195       H         75.78500000  *  158.71900000  * -42.41900000  *
   196       C         74.14000000  *  159.26700000  * -43.69600000  *
   197       H         74.51800000  *  158.73300000  * -44.56500000  *
   198       C         70.16700000  *  159.17400000  * -46.42900000  *
   199       O         70.41800000  *  158.72400000  * -47.55600000  *
   200       N         69.03200000  *  159.83700000  * -46.21300000  *
   201       H         68.84300000  *  160.14200000  * -45.26500000  *
   202       C         68.29400000  *  160.51100000  * -47.28300000  *
   203       H         68.28800000  *  159.90800000  * -48.19200000  *
   204       C         66.84700000  *  160.83000000  * -46.85300000  *
   205       H         66.33800000  *  159.91100000  * -46.57800000  *
   206       H         66.86000000  *  161.48400000  * -45.97800000  *
   207       C         66.02800000  *  161.49000000  * -47.97400000  *
   208       H         66.48700000  *  162.43800000  * -48.25900000  *
   209       H         66.01400000  *  160.82800000  * -48.84100000  *
   210       C         64.58800000  *  161.74600000  * -47.50200000  *
   211       H         64.14800000  *  160.80700000  * -47.16100000  *
   212       H         64.60800000  *  162.44800000  * -46.66600000  *
   213       C         63.73600000  *  162.32100000  * -48.64000000  *
   214       H         64.23800000  *  163.20900000  * -49.04000000  *
   215       H         63.68100000  *  161.57400000  * -49.44100000  *
   216       N         62.36800000  *  162.68000000  * -48.18000000  *
   217       H         62.39600000  *  163.38900000  * -47.46100000  *
   218       H         61.81100000  *  163.04900000  * -48.94000000  *
   219       H         61.88000000  *  161.88000000  * -47.80200000  *
   220       C         69.09700000  *  161.76800000  * -47.51100000  *
   221       O         69.32400000  *  162.50300000  * -46.55400000  *
   222       N         69.55500000  *  162.00600000  * -48.72500000  *
   223       H         69.34400000  *  161.34200000  * -49.46700000  *
   224       C         70.34900000  *  163.18200000  * -49.01700000  *
   225       H         70.22500000  *  163.93500000  * -48.24000000  *
   226       C         71.81400000  *  162.79200000  * -49.07000000  *
   227       H         71.97800000  *  162.06700000  * -49.86400000  *
   228       H         72.42900000  *  163.67700000  * -49.23900000  *
   229       H         72.10500000  *  162.33200000  * -48.12600000  *
   230       C         69.94400000  *  163.83800000  * -50.32200000  *
   231       O         69.22100000  *  163.25100000  * -51.12800000  *
   232       N         70.40700000  *  165.06400000  * -50.52400000  *
   233       H         70.93200000  *  165.53000000  * -49.79600000  *
   234       C         70.10800000  *  165.77900000  * -51.74600000  *
   235       H         69.54100000  *  165.15900000  * -52.44400000  *
   236       H         69.52200000  *  166.69100000  * -51.53000000  *
   237       H         71.05900000  *  166.04700000  * -52.23900000  *
   238       H         68.08600000  *  164.80700000  * -56.55000000  *
   239       C         68.21200000  *  164.39600000  * -55.53600000  *
   240       O         69.28600000  *  164.50800000  * -54.94200000  *
   241       N         67.13500000  *  163.82300000  * -55.01100000  *
   242       H         66.34000000  *  163.66800000  * -55.61500000  *
   243       C         67.13600000  *  163.21200000  * -53.68800000  *
   244       H         67.86300000  *  163.70700000  * -53.05000000  *
   245       C         65.75500000  *  163.32300000  * -53.02900000  *
   246       H         64.97700000  *  163.06900000  * -53.75000000  *
   247       C         65.64800000  *  162.36600000  * -51.85200000  *
   248       H         66.47200000  *  162.51800000  * -51.15200000  *
   249       H         64.69700000  *  162.53800000  * -51.34700000  *
   250       H         65.65200000  *  161.33900000  * -52.20000000  *
   251       C         65.54000000  *  164.75000000  * -52.56600000  *
   252       H         65.62600000  *  165.42400000  * -53.41600000  *
   253       H         64.53500000  *  164.85100000  * -52.15900000  *
   254       H         66.28400000  *  165.00300000  * -51.81000000  *
   255       C         67.52600000  *  161.76000000  * -53.84700000  *
   256       O         66.97900000  *  161.02800000  * -54.68200000  *
   257       N         68.49600000  *  161.34900000  * -53.04800000  *
   258       H         68.91100000  *  161.99700000  * -52.39100000  *
   259       C         69.01100000  *  159.99200000  * -53.10200000  *
   260       H         68.34600000  *  159.34100000  * -53.67900000  *
   261       C         70.37400000  *  159.97400000  * -53.81600000  *
   262       H         70.77500000  *  158.96500000  * -53.87500000  *
   263       C         70.21400000  *  160.50700000  * -55.21300000  *
   264       H         69.95700000  *  161.56600000  * -55.19000000  *
   265       H         71.15100000  *  160.39100000  * -55.75600000  *
   266       H         69.44200000  *  159.95000000  * -55.73600000  *
   267       C         71.37900000  *  160.85000000  * -53.05700000  *
   268       H         71.56500000  *  160.44500000  * -52.06400000  *
   269       H         72.31500000  *  160.84900000  * -53.61300000  *
   270       H         71.03600000  *  161.88400000  * -52.98400000  *
   271       C         69.19200000  *  159.37200000  * -51.72900000  *
   272       O         69.02000000  *  160.03600000  * -50.68600000  *
   273       N         69.38400000  *  158.05900000  * -51.70400000  *
   274       H         69.46400000  *  157.56700000  * -52.58900000  *
   275       C         69.76000000  *  157.32100000  * -50.51400000  *
   276       H         69.47700000  *  157.87900000  * -49.62300000  *
   277       C         69.01000000  *  155.99700000  * -50.48700000  *
   278       H         69.25300000  *  155.42800000  * -51.38200000  *
   279       H         69.29700000  *  155.42500000  * -49.60400000  *
   280       H         67.93900000  *  156.19100000  * -50.45600000  *
   281       C         71.27800000  *  157.14200000  * -50.53900000  *
   282       O         71.81400000  *  156.46300000  * -51.42100000  *
   283       N         71.97000000  *  157.79100000  * -49.60300000  *
   284       H         71.44500000  *  158.28300000  * -48.88900000  *
   285       C         73.41300000  *  157.73400000  * -49.53500000  *
   286       H         73.80300000  *  157.43200000  * -50.50200000  *
   287       C         73.96100000  *  159.11400000  * -49.18200000  *
   288       H         73.49200000  *  159.84000000  * -49.85100000  *
   289       H         73.62800000  *  159.35800000  * -48.16900000  *
   290       C         75.47300000  *  159.31600000  * -49.26600000  *
   291       H         75.96900000  *  158.63700000  * -48.57100000  *
   292       C         75.94900000  *  159.02000000  * -50.68400000  *
   293       H         75.44100000  *  159.71800000  * -51.34800000  *
   294       H         77.02400000  *  159.18800000  * -50.76300000  *
   295       H         75.74700000  *  157.98700000  * -50.96800000  *
   296       C         75.80400000  *  160.74000000  * -48.87900000  *
   297       H         75.43700000  *  160.94600000  * -47.87600000  *
   298       H         76.88200000  *  160.87900000  * -48.92200000  *
   299       H         75.32000000  *  161.42900000  * -49.57600000  *
   300       C         73.82100000  *  156.71600000  * -48.48500000  *
   301       O         73.39600000  *  156.78100000  * -47.33400000  *
   302       N         74.65700000  *  155.76200000  * -48.88300000  *
   303       H         74.90300000  *  155.74300000  * -49.87100000  *
   304       C         75.13000000  *  154.64400000  * -48.05900000  *
   305       H         74.60800000  *  154.63200000  * -47.10100000  *
   306       C         74.82300000  *  153.34400000  * -48.83700000  *
   307       H         74.25200000  *  153.58700000  * -49.73700000  *
   308       H         75.74800000  *  152.87700000  * -49.17000000  *
   309       C         73.99800000  *  152.30000000  * -48.08400000  *
   310       H         73.14900000  *  152.78300000  * -47.60100000  *
   311       H         73.60400000  *  151.61600000  * -48.83400000  *
   312       C         74.82600000  *  151.51400000  * -47.05100000  *
   313       H         75.83600000  *  151.34900000  * -47.42800000  *
   314       H         74.90400000  *  152.10800000  * -46.13700000  *
   315       C         74.18600000  *  150.15300000  * -46.72600000  *
   316       H         74.71200000  *  149.72300000  * -45.86700000  *
   317       H         73.14900000  *  150.32800000  * -46.42000000  *
   318       N         74.24100000  *  149.20900000  * -47.88500000  *
   319       H         75.19000000  *  148.95000000  * -48.12600000  *
   320       H         73.72300000  *  148.33600000  * -47.70800000  *
   321       H         73.80500000  *  149.60300000  * -48.71000000  *
   322       C         76.62400000  *  154.83600000  * -47.79400000  *
   323       O         77.41800000  *  154.65100000  * -48.70800000  *
   324       N         77.01700000  *  155.22600000  * -46.58100000  *
   325       H         76.29800000  *  155.26800000  * -45.86500000  *
   326       C         78.42200000  *  155.28900000  * -46.15900000  *
   327       H         79.06600000  *  155.59300000  * -46.98900000  *
   328       C         78.56700000  *  156.26000000  * -44.97900000  *
   329       H         78.02700000  *  155.87500000  * -44.10900000  *
   330       H         79.62500000  *  156.33900000  * -44.73000000  *
   331       C         78.01500000  *  157.64300000  * -45.34000000  *
   332       H         78.45100000  *  157.95800000  * -46.27300000  *
   333       H         76.93600000  *  157.57500000  * -45.50000000  *
   334       C         78.25100000  *  158.72500000  * -44.27900000  *
   335       H         77.97800000  *  159.68000000  * -44.73200000  *
   336       H         77.56000000  *  158.53300000  * -43.46900000  *
   337       C         79.67700000  *  158.85000000  * -43.70900000  *
   338       H         80.38400000  *  158.36300000  * -44.39700000  *
   339       H         79.95000000  *  159.91100000  * -43.68600000  *
   340       N         79.78800000  *  158.26900000  * -42.33500000  *
   341       H         79.63700000  *  157.26100000  * -42.37000000  *
   342       H         80.69600000  *  158.42600000  * -41.93200000  *
   343       H         79.10400000  *  158.64600000  * -41.70100000  *
   344       C         78.82300000  *  153.89100000  * -45.72900000  *
   345       O         78.09100000  *  153.31500000  * -44.93700000  *
   346       N         79.90700000  *  153.32000000  * -46.24700000  *
   347       H         80.40500000  *  153.76400000  * -47.01000000  *
   348       C         80.34300000  *  152.02200000  * -45.76800000  *
   349       H         79.49500000  *  151.49800000  * -45.35900000  *
   350       C         80.94400000  *  151.18600000  * -46.89500000  *
   351       H         81.78600000  *  151.78200000  * -47.16900000  *
   352       C         81.42400000  *  149.85200000  * -46.34500000  *
   353       H         80.65600000  *  149.35200000  * -45.75200000  *
   354       H         81.67900000  *  149.19900000  * -47.17900000  *
   355       H         82.34500000  *  149.95700000  * -45.76100000  *
   356       C         79.89700000  *  150.97600000  * -47.99700000  *
   357       H         79.60200000  *  151.87000000  * -48.50000000  *
   358       H         80.28300000  *  150.30500000  * -48.75000000  *
   359       C         78.59100000  *  150.36100000  * -47.52600000  *
   360       H         78.17700000  *  150.90100000  * -46.69000000  *
   361       H         77.89400000  *  150.33700000  * -48.36300000  *
   362       H         78.77100000  *  149.33300000  * -47.20900000  *
   363       C         81.33300000  *  152.07100000  * -44.61400000  *
   364       O         82.16700000  *  152.98000000  * -44.51900000  *
   365       N         81.21100000  *  151.07100000  * -43.74300000  *
   366       H         80.50300000  *  150.36100000  * -43.92800000  *
   367       C         82.04400000  *  150.90200000  * -42.55200000  *
   368       H         81.47500000  *  151.18100000  * -41.66300000  *
   369       H         82.35800000  *  149.86100000  * -42.45900000  *
   370       H         82.94700000  *  151.51400000  * -42.62000000  *
   371       H         81.25700000  *  144.04600000  * -57.89900000  *
   372       C         80.50000000  *  144.84100000  * -57.88800000  *
   373       O         79.71500000  *  144.99000000  * -58.82400000  *
   374       N         80.49900000  *  145.60300000  * -56.79700000  *
   375       H         81.28000000  *  145.52500000  * -56.16600000  *
   376       C         79.57000000  *  146.70600000  * -56.61200000  *
   377       H         78.57500000  *  146.34400000  * -56.42300000  *
   378       C         80.00500000  *  147.61000000  * -55.44200000  *
   379       H         80.89800000  *  148.18000000  * -55.68500000  *
   380       C         78.90600000  *  148.60800000  * -55.12500000  *
   381       H         77.92000000  *  148.14100000  * -55.17600000  *
   382       H         79.04500000  *  148.98700000  * -54.11600000  *
   383       H         78.93800000  *  149.43600000  * -55.83300000  *
   384       C         80.32100000  *  146.76200000  * -54.20900000  *
   385       H         81.19200000  *  146.13400000  * -54.40600000  *
   386       H         80.59400000  *  147.42200000  * -53.38900000  *
   387       C         79.18400000  *  145.87900000  * -53.76500000  *
   388       H         78.77800000  *  145.31100000  * -54.59400000  *
   389       H         79.50900000  *  145.12200000  * -53.06500000  *
   390       H         78.38800000  *  146.48300000  * -53.33500000  *
   391       C         79.54300000  *  147.54500000  * -57.87900000  *
   392       O         78.48200000  *  147.77900000  * -58.45100000  *
   393       N         80.72300000  *  147.98900000  * -58.30900000  *
   394       H         81.55800000  *  147.70100000  * -57.81200000  *
   395       C         80.85900000  *  148.80400000  * -59.51100000  *
   396       H         80.33900000  *  149.74600000  * -59.38600000  *
   397       H         81.92800000  *  148.98500000  * -59.72900000  *
   398       H         80.37800000  *  148.32200000  * -60.38100000  *
   399       H         78.96400000  *  146.08700000  * -61.65600000  *
   400       C         77.87300000  *  146.08700000  * -61.51600000  *
   401       O         77.11500000  *  145.89500000  * -62.46400000  *
   402       N         77.44600000  *  146.31800000  * -60.28000000  *
   403       H         78.13400000  *  146.42500000  * -59.54900000  *
   404       C         76.02800000  *  146.35200000  * -59.94500000  *
   405       H         75.53300000  *  145.47600000  * -60.35900000  *
   406       C         75.84100000  *  146.37400000  * -58.43100000  *
   407       H         76.20500000  *  147.30400000  * -58.01800000  *
   408       H         74.76300000  *  146.35700000  * -58.24200000  *
   409       C         76.47200000  *  145.22200000  * -57.65900000  *
   410       H         77.55000000  *  145.23900000  * -57.74900000  *
   411       C         76.08000000  *  145.34100000  * -56.19200000  *
   412       H         74.99900000  *  145.23000000  * -56.07700000  *
   413       H         76.57300000  *  144.55300000  * -55.62900000  *
   414       H         76.38500000  *  146.30900000  * -55.80100000  *
   415       C         75.99600000  *  143.89000000  * -58.23600000  *
   416       H         76.41500000  *  143.73000000  * -59.22900000  *
   417       H         76.32800000  *  143.07800000  * -57.59100000  *
   418       H         74.90500000  *  143.87400000  * -58.30500000  *
   419       C         75.32200000  *  147.55900000  * -60.54800000  *
   420       O         74.09500000  *  147.56800000  * -60.66200000  *
   421       N         76.08400000  *  148.63100000  * -60.82900000  *
   422       H         77.08200000  *  148.53500000  * -60.67700000  *
   423       C         75.60100000  *  149.83300000  * -61.53400000  *
   424       H         74.83700000  *  150.33500000  * -60.94100000  *
   425       H         76.43800000  *  150.53300000  * -61.75900000  *
   426       H         75.13800000  *  149.54900000  * -62.49200000  *
   427       H         62.79000000  *  145.77200000  * -59.27600000  *
   428       C         63.71000000  *  145.72000000  * -58.67500000  *
   429       O         63.77900000  *  145.02200000  * -57.66400000  *
   430       N         64.72400000  *  146.45200000  * -59.11400000  *
   431       H         64.63800000  *  147.05100000  * -59.92700000  *
   432       C         65.97100000  *  146.53500000  * -58.38100000  *
   433       H         65.88400000  *  146.09200000  * -57.38600000  *
   434       C         67.11600000  *  145.87700000  * -59.11400000  *
   435       H         67.33600000  *  146.42600000  * -60.03000000  *
   436       C         68.35100000  *  145.87800000  * -58.21400000  *
   437       H         68.14700000  *  145.31400000  * -57.31800000  *
   438       H         69.21000000  *  145.44500000  * -58.72400000  *
   439       H         68.64100000  *  146.89000000  * -57.94500000  *
   440       C         66.72800000  *  144.44400000  * -59.47800000  *
   441       H         66.54900000  *  143.87300000  * -58.56400000  *
   442       H         65.81500000  *  144.42400000  * -60.06800000  *
   443       C         67.77400000  *  143.72700000  * -60.29600000  *
   444       H         68.68300000  *  143.57700000  * -59.72200000  *
   445       H         67.37700000  *  142.75300000  * -60.59800000  *
   446       H         68.02300000  *  144.31300000  * -61.18000000  *
   447       C         66.29500000  *  148.01000000  * -58.22000000  *
   448       O         66.21200000  *  148.78000000  * -59.18400000  *
   449       N         66.55100000  *  148.44100000  * -56.98200000  *
   450       H         66.62000000  *  147.76000000  * -56.23000000  *
   451       C         66.88600000  *  149.83900000  * -56.68500000  *
   452       H         66.07000000  *  150.48000000  * -57.02000000  *
   453       C         67.08500000  *  150.05500000  * -55.17900000  *
   454       H         67.89400000  *  149.41400000  * -54.82600000  *
   455       C         67.42900000  *  151.51000000  * -54.84100000  *
   456       H         66.58900000  *  152.16400000  * -55.07500000  *
   457       H         67.65400000  *  151.58100000  * -53.77900000  *
   458       H         68.30000000  *  151.84500000  * -55.39800000  *
   459       C         65.81100000  *  149.71200000  * -54.40500000  *
   460       H         65.54700000  *  148.66600000  * -54.53000000  *
   461       H         65.99600000  *  149.88700000  * -53.35200000  *
   462       H         64.98500000  *  150.33200000  * -54.74400000  *
   463       C         68.15000000  *  150.21700000  * -57.45200000  *
   464       O         69.17800000  *  149.54700000  * -57.32600000  *
   465       N         68.08000000  *  151.28300000  * -58.25100000  *
   466       H         67.22500000  *  151.80400000  * -58.24500000  *
   467       C         69.18900000  *  151.69800000  * -59.08000000  *
   468       H         69.52500000  *  150.81900000  * -59.63900000  *
   469       C         68.73700000  *  152.76800000  * -60.08300000  *
   470       H         67.83400000  *  152.41100000  * -60.57900000  *
   471       H         68.47700000  *  153.68100000  * -59.53700000  *
   472       C         69.79100000  *  153.06900000  * -61.13100000  *
   473       H         70.72100000  *  153.35000000  * -60.64200000  *
   474       H         69.97400000  *  152.16800000  * -61.71600000  *
   475       C         69.35100000  *  154.17900000  * -62.08100000  *
   476       H         68.50200000  *  153.81400000  * -62.66100000  *
   477       H         69.02300000  *  155.05600000  * -61.52200000  *
   478       C         70.49800000  *  154.55900000  * -63.02400000  *
   479       H         71.33900000  *  154.89000000  * -62.40800000  *
   480       H         70.81900000  *  153.66100000  * -63.56600000  *
   481       N         70.11800000  *  155.62600000  * -63.99700000  *
   482       H         69.74700000  *  156.41600000  * -63.48300000  *
   483       H         70.92600000  *  155.93300000  * -64.52500000  *
   484       H         69.41500000  *  155.27800000  * -64.63600000  *
   485       C         70.36000000  *  152.21400000  * -58.25300000  *
   486       O         70.19400000  *  153.07400000  * -57.38700000  *
   487       N         71.53700000  *  151.64500000  * -58.50700000  *
   488       H         71.59600000  *  150.90400000  * -59.18600000  *
   489       C         72.75000000  *  152.07400000  * -57.83600000  *
   490       H         72.53800000  *  152.52600000  * -56.87100000  *
   491       C         73.72700000  *  150.91100000  * -57.67000000  *
   492       H         73.31500000  *  150.22100000  * -56.93700000  *
   493       H         73.77900000  *  150.36900000  * -58.62000000  *
   494       C         75.16700000  *  151.27300000  * -57.28800000  *
   495       H         75.65500000  *  151.80300000  * -58.10000000  *
   496       C         75.18300000  *  152.16500000  * -56.05900000  *
   497       H         74.60800000  *  151.72100000  * -55.25200000  *
   498       H         76.21000000  *  152.29600000  * -55.73500000  *
   499       H         74.78900000  *  153.14000000  * -56.31200000  *
   500       C         75.93300000  *  149.99400000  * -57.01300000  *
   501       H         75.98300000  *  149.42100000  * -57.93300000  *
   502       H         76.94600000  *  150.24200000  * -56.71200000  *
   503       H         75.43500000  *  149.41000000  * -56.23200000  *
   504       C         73.31900000  *  153.11300000  * -58.79500000  *
   505       O         73.76900000  *  152.77900000  * -59.89700000  *
   506       N         73.26700000  *  154.36900000  * -58.37800000  *
   507       H         72.92600000  *  154.57000000  * -57.44900000  *
   508       C         73.73400000  *  155.46600000  * -59.19700000  *
   509       H         73.47500000  *  155.26500000  * -60.23600000  *
   510       C         73.02500000  *  156.74200000  * -58.76000000  *
   511       H         73.45000000  *  157.06300000  * -57.80900000  *
   512       H         73.23600000  *  157.53300000  * -59.48700000  *
   513       C         71.51300000  *  156.60300000  * -58.58700000  *
   514       H         71.27400000  *  155.80900000  * -57.88500000  *
   515       C         70.97400000  *  157.88000000  * -58.01900000  *
   516       H         71.37000000  *  158.74600000  * -58.56000000  *
   517       H         69.88800000  *  157.89100000  * -58.09300000  *
   518       H         71.22100000  *  157.96000000  * -56.96600000  *
   519       C         70.85100000  *  156.29000000  * -59.92300000  *
   520       H         71.28300000  *  155.39700000  * -60.34200000  *
   521       H         69.78900000  *  156.14400000  * -59.75100000  *
   522       H         71.00300000  *  157.12700000  * -60.60700000  *
   523       C         75.24500000  *  155.67800000  * -59.15800000  *
   524       O         75.83900000  *  156.04700000  * -60.17600000  *
   525       N         75.86200000  *  155.44600000  * -57.99600000  *
   526       H         75.29500000  *  155.17900000  * -57.20400000  *
   527       C         77.30800000  *  155.64700000  * -57.82900000  *
   528       H         77.80800000  *  155.40400000  * -58.76600000  *
   529       C         77.60000000  *  157.11700000  * -57.51900000  *
   530       H         76.91700000  *  157.54400000  * -56.80300000  *
   531       H         78.58200000  *  157.17000000  * -57.04800000  *
   532       C         77.65600000  *  157.97500000  * -58.75600000  *
   533       O         78.67800000  *  157.91700000  * -59.48300000  *
   534       O         76.67400000  *  158.70400000  * -59.00000000  *
   535       C         77.97900000  *  154.81700000  * -56.73400000  *
   536       O         77.37100000  *  154.52100000  * -55.70400000  *
   537       N         79.24700000  *  154.47700000  * -56.96600000  *
   538       H         79.69800000  *  154.82400000  * -57.79800000  *
   539       C         80.06100000  *  153.73800000  * -56.00300000  *
   540       H         79.55400000  *  153.69900000  * -55.05200000  *
   541       C         80.36600000  *  152.29800000  * -56.50400000  *
   542       H         79.42700000  *  151.75200000  * -56.56200000  *
   543       C         80.98100000  *  152.34300000  * -57.88400000  *
   544       H         82.06600000  *  152.43300000  * -57.82100000  *
   545       H         80.74600000  *  151.41400000  * -58.37900000  *
   546       H         80.59600000  *  153.14500000  * -58.51000000  *
   547       C         81.29900000  *  151.58800000  * -55.53900000  *
   548       H         80.81100000  *  151.54900000  * -54.57200000  *
   549       H         81.47300000  *  150.57200000  * -55.87800000  *
   550       H         82.25900000  *  152.09200000  * -55.44900000  *
   551       C         81.36500000  *  154.53600000  * -55.81000000  *
   552       O         82.27000000  *  154.48900000  * -56.64700000  *
   553       N         81.45200000  *  155.28200000  * -54.71000000  *
   554       H         80.67600000  *  155.30400000  * -54.06400000  *
   555       C         82.62100000  *  156.11100000  * -54.44300000  *
   556       H         83.20500000  *  156.21800000  * -55.35800000  *
   557       H         82.32200000  *  157.12800000  * -54.14500000  *
   558       H         83.29700000  *  155.73900000  * -53.65600000  *
   559       H         84.58000000  *  155.17100000  * -47.07300000  *
   560       C         84.22500000  *  154.98400000  * -48.09100000  *
   561       O         84.63900000  *  155.65900000  * -49.04200000  *
   562       N         83.35800000  *  153.99100000  * -48.22200000  *
   563       H         83.13600000  *  153.42800000  * -47.41700000  *
   564       C         82.77600000  *  153.65100000  * -49.50600000  *
   565       H         83.37000000  *  154.04700000  * -50.31700000  *
   566       C         82.71900000  *  152.14000000  * -49.66000000  *
   567       H         83.74000000  *  151.87500000  * -49.95700000  *
   568       H         82.64400000  *  151.54600000  * -48.78400000  *
   569       C         81.82600000  *  151.61900000  * -50.77900000  *
   570       H         80.79100000  *  151.88400000  * -50.58700000  *
   571       C         82.25800000  *  152.23100000  * -52.09200000  *
   572       H         83.31100000  *  152.49100000  * -52.08900000  *
   573       H         82.09300000  *  151.51300000  * -52.88400000  *
   574       H         81.65400000  *  153.10900000  * -52.31200000  *
   575       C         81.89900000  *  150.09400000  * -50.82200000  *
   576       H         81.91300000  *  149.66400000  * -49.82700000  *
   577       H         81.05200000  *  149.70600000  * -51.39100000  *
   578       H         82.82500000  *  149.80300000  * -51.32100000  *
   579       C         81.36700000  *  154.23200000  * -49.54800000  *
   580       O         80.51800000  *  153.85700000  * -48.74500000  *
   581       N         81.13100000  *  155.16100000  * -50.46700000  *
   582       H         81.84500000  *  155.34800000  * -51.16200000  *
   583       C         79.82200000  *  155.78100000  * -50.60800000  *
   584       H         79.27400000  *  155.67000000  * -49.68700000  *
   585       C         79.96700000  *  157.27800000  * -50.86800000  *
   586       H         80.42300000  *  157.50400000  * -51.79700000  *
   587       H         78.95400000  *  157.66400000  * -50.98900000  *
   588       C         80.57600000  *  158.04300000  * -49.72300000  *
   589       C         79.79300000  *  158.48000000  * -48.65600000  *
   590       H         78.73500000  *  158.25400000  * -48.66900000  *
   591       C         80.35600000  *  159.18600000  * -47.59400000  *
   592       H         79.75300000  *  159.56200000  * -46.79700000  *
   593       C         81.71600000  *  159.45200000  * -47.58700000  *
   594       O         82.27600000  *  160.12500000  * -46.52100000  *
   595       H         83.20600000  *  160.30800000  * -46.74500000  *
   596       C         82.51400000  *  159.02600000  * -48.63700000  *
   597       H         83.58200000  *  159.23300000  * -48.65000000  *
   598       C         81.94100000  *  158.32800000  * -49.69800000  *
   599       H         82.57400000  *  157.98100000  * -50.50200000  *
   600       C         79.04800000  *  155.15800000  * -51.76500000  *
   601       O         79.54400000  *  155.08000000  * -52.88800000  *
   602       N         77.86200000  *  154.62100000  * -51.49500000  *
   603       H         77.53600000  *  154.64200000  * -50.53500000  *
   604       C         76.98100000  *  154.05400000  * -52.51500000  *
   605       H         77.50700000  *  154.00700000  * -53.46200000  *
   606       C         76.54700000  *  152.62000000  * -52.16900000  *
   607       H         75.84500000  *  152.65600000  * -51.34400000  *
   608       H         76.01300000  *  152.21900000  * -53.03200000  *
   609       C         77.68300000  *  151.65100000  * -51.80200000  *
   610       H         78.18800000  *  151.99500000  * -50.90000000  *
   611       C         77.11700000  *  150.25700000  * -51.53600000  *
   612       H         76.63500000  *  149.86700000  * -52.43500000  *
   613       H         77.92300000  *  149.58200000  * -51.24300000  *
   614       H         76.39000000  *  150.30300000  * -50.72800000  *
   615       C         78.69800000  *  151.53400000  * -52.93200000  *
   616       H         79.21600000  *  152.48200000  * -53.05600000  *
   617       H         79.43400000  *  150.77400000  * -52.68300000  *
   618       H         78.19400000  *  151.27200000  * -53.86300000  *
   619       C         75.78400000  *  154.98300000  * -52.67300000  *
   620       O         75.09900000  *  155.25300000  * -51.68300000  *
   621       N         75.54700000  *  155.50800000  * -53.87800000  *
   622       H         76.14500000  *  155.25500000  * -54.66000000  *
   623       C         74.40900000  *  156.37500000  * -54.09400000  *
   624       H         73.97600000  *  156.70200000  * -53.15000000  *
   625       C         74.83400000  *  157.63700000  * -54.81800000  *
   626       H         75.25500000  *  157.34500000  * -55.76600000  *
   627       C         73.61400000  *  158.52200000  * -55.10900000  *
   628       H         73.11700000  *  158.76900000  * -54.17500000  *
   629       H         73.94100000  *  159.43100000  * -55.61500000  *
   630       H         72.91600000  *  158.00900000  * -55.76200000  *
   631       C         75.84000000  *  158.38200000  * -53.94900000  *
   632       H         75.28100000  *  158.78400000  * -53.13000000  *
   633       H         76.65600000  *  157.75800000  * -53.60500000  *
   634       H         76.26100000  *  159.20400000  * -54.52500000  *
   635       C         73.31400000  *  155.64400000  * -54.85300000  *
   636       O         73.49500000  *  155.22100000  * -55.99400000  *
   637       N         72.21300000  *  155.37600000  * -54.15700000  *
   638       H         72.14500000  *  155.72800000  * -53.20600000  *
   639       C         71.03200000  *  154.71300000  * -54.70000000  *
   640       H         71.27900000  *  154.25500000  * -55.65300000  *
   641       C         70.56600000  *  153.61300000  * -53.74000000  *
   642       H         70.45000000  *  154.03900000  * -52.74300000  *
   643       H         69.58100000  *  153.27600000  * -54.05800000  *
   644       C         71.47800000  *  152.40400000  * -53.65500000  *
   645       C         71.29200000  *  151.31800000  * -54.53300000  *
   646       H         70.52600000  *  151.35800000  * -55.29200000  *
   647       C         72.09500000  *  150.17000000  * -54.42200000  *
   648       H         71.94000000  *  149.33500000  * -55.09300000  *
   649       C         73.09600000  *  150.10500000  * -53.43800000  *
   650       H         73.71500000  *  149.22100000  * -53.35400000  *
   651       C         73.29000000  *  151.19000000  * -52.56600000  *
   652       H         74.05400000  *  151.13400000  * -51.80500000  *
   653       C         72.48700000  *  152.34000000  * -52.67400000  *
   654       H         72.63600000  *  153.16900000  * -51.99600000  *
   655       C         69.91100000  *  155.72900000  * -54.93200000  *
   656       O         69.78300000  *  156.70200000  * -54.18800000  *
   657       N         69.07700000  *  155.51300000  * -55.95000000  *
   658       H         69.22200000  *  154.68800000  * -56.52400000  *
   659       C         67.81100000  *  156.25300000  * -56.07600000  *
   660       H         68.05100000  *  157.30300000  * -56.24500000  *
   661       C         67.01100000  *  155.75500000  * -57.29200000  *
   662       H         66.13700000  *  156.39800000  * -57.40000000  *
   663       H         67.62600000  *  155.85300000  * -58.18700000  *
   664       C         66.54800000  *  154.29600000  * -57.16000000  *
   665       H         67.42600000  *  153.65600000  * -57.07500000  *
   666       H         65.96300000  *  154.18700000  * -56.25000000  *
   667       C         65.67000000  *  153.80700000  * -58.31500000  *
   668       O         65.13700000  *  154.62500000  * -59.09800000  *
   669       O         65.47900000  *  152.57300000  * -58.40600000  *
   670       C         66.99000000  *  156.16100000  * -54.77100000  *
   671       O         66.93500000  *  155.10500000  * -54.13700000  *
   672       N         66.36300000  *  157.25400000  * -54.33300000  *
   673       H         66.39300000  *  158.10200000  * -54.88100000  *
   674       C         65.50100000  *  157.22800000  * -53.14800000  *
   675       H         65.97600000  *  156.60900000  * -52.38400000  *
   676       C         65.37000000  *  158.64100000  * -52.57100000  *
   677       H         66.36300000  *  159.00500000  * -52.30900000  *
   678       H         64.96300000  *  159.29900000  * -53.34000000  *
   679       C         64.49500000  *  158.72000000  * -51.33400000  *
   680       C         63.20200000  *  159.27100000  * -51.41100000  *
   681       H         62.82700000  *  159.65200000  * -52.35200000  *
   682       C         62.38700000  *  159.32000000  * -50.26700000  *
   683       H         61.39100000  *  159.73800000  * -50.33200000  *
   684       C         62.86100000  *  158.81700000  * -49.04200000  *
   685       H         62.23200000  *  158.84800000  * -48.16300000  *
   686       C         64.15400000  *  158.27000000  * -48.96200000  *
   687       H         64.51800000  *  157.88300000  * -48.02100000  *
   688       C         64.96900000  *  158.22000000  * -50.10700000  *
   689       H         65.95900000  *  157.79000000  * -50.04500000  *
   690       C         64.12500000  *  156.61700000  * -53.46000000  *
   691       O         63.49100000  *  156.98000000  * -54.45500000  *
   692       N         63.64400000  *  155.73500000  * -52.57900000  *
   693       H         64.23400000  *  155.47600000  * -51.79800000  *
   694       C         62.25100000  *  155.27500000  * -52.53500000  *
   695       H         61.66300000  *  155.81300000  * -53.28100000  *
   696       C         62.14600000  *  153.76900000  * -52.83300000  *
   697       H         62.90200000  *  153.23500000  * -52.26000000  *
   698       H         61.16700000  *  153.43700000  * -52.48300000  *
   699       C         62.26500000  *  153.42000000  * -54.32900000  *
   700       H         61.87400000  *  154.24100000  * -54.92900000  *
   701       C         63.71400000  *  153.14700000  * -54.73000000  *
   702       H         64.12300000  *  152.34500000  * -54.11900000  *
   703       H         63.76500000  *  152.87500000  * -55.78300000  *
   704       H         64.31300000  *  154.04200000  * -54.57800000  *
   705       C         61.44600000  *  152.17000000  * -54.65700000  *
   706       H         60.40600000  *  152.32200000  * -54.36800000  *
   707       H         61.47600000  *  151.98200000  * -55.72900000  *
   708       H         61.84100000  *  151.30500000  * -54.12700000  *
   709       C         61.64300000  *  155.60800000  * -51.16900000  *
   710       O         62.32800000  *  155.60500000  * -50.14900000  *
   711       N         60.35700000  *  155.94600000  * -51.16000000  *
   712       H         59.86200000  *  155.94000000  * -52.04300000  *
   713       C         59.71000000  *  156.65300000  * -50.05300000  *
   714       H         60.36800000  *  157.46700000  * -49.74600000  *
   715       C         58.41400000  *  157.28800000  * -50.57700000  *
   716       H         57.67600000  *  156.50200000  * -50.73400000  *
   717       H         58.03800000  *  157.97100000  * -49.81700000  *
   718       C         58.57000000  *  158.05100000  * -51.87300000  *
   719       N         58.62200000  *  157.47800000  * -53.14900000  *
   720       C         58.80100000  *  158.49900000  * -54.00500000  *
   721       H         58.88100000  *  158.40200000  * -55.08200000  *
   722       N         58.86700000  *  159.66300000  * -53.33600000  *
   723       H         58.99700000  *  160.57500000  * -53.76400000  *
   724       C         58.72800000  *  159.40100000  * -51.99100000  *
   725       H         58.74400000  *  160.11900000  * -51.18000000  *
   726       C         59.44900000  *  155.81700000  * -48.78700000  *
   727       O         59.25600000  *  156.39800000  * -47.71900000  *
   728       N         59.43500000  *  154.48100000  * -48.88200000  *
   729       H         59.60200000  *  154.06600000  * -49.78800000  *
   730       C         59.08500000  *  153.57000000  * -47.78000000  *
   731       H         59.53900000  *  153.94700000  * -46.86200000  *
   732       C         57.54900000  *  153.59000000  * -47.60500000  *
   733       H         57.25100000  *  154.60100000  * -47.32600000  *
   734       H         57.06700000  *  153.35000000  * -48.55500000  *
   735       C         57.03200000  *  152.61800000  * -46.53300000  *
   736       H         56.87200000  *  151.64200000  * -46.98700000  *
   737       H         57.77900000  *  152.52100000  * -45.74800000  *
   738       C         55.74100000  *  153.09200000  * -45.87500000  *
   739       O         55.74800000  *  153.73200000  * -44.83600000  *
   740       N         54.58800000  *  152.79600000  * -46.43500000  *
   741       H         53.75900000  *  153.12900000  * -45.96600000  *
   742       H         54.55400000  *  152.29900000  * -47.30700000  *
   743       C         59.62400000  *  152.14300000  * -48.01400000  *
   744       O         59.66700000  *  151.67500000  * -49.15300000  *
   745       N         60.02100000  *  151.44100000  * -46.94400000  *
   746       H         59.97000000  *  151.87500000  * -46.03600000  *
   747       C         60.32400000  *  150.00000000  * -46.98500000  *
   748       H         60.62600000  *  149.76700000  * -48.00200000  *
   749       C         61.54400000  *  149.65300000  * -46.10600000  *
   750       H         61.85700000  *  148.64200000  * -46.37000000  *
   751       H         62.36100000  *  150.32400000  * -46.37700000  *
   752       C         61.34000000  *  149.69600000  * -44.58300000  *
   753       O         60.25500000  *  149.31000000  * -44.10300000  *
   754       O         62.29400000  *  150.07400000  * -43.86600000  *
   755       C         59.09500000  *  149.10700000  * -46.69900000  *
   756       O         58.06800000  *  149.55600000  * -46.17300000  *
   757       N         59.19100000  *  147.81900000  * -47.04800000  *
   758       H         60.03800000  *  147.50900000  * -47.52500000  *
   759       C         58.10100000  *  146.88000000  * -46.84100000  *
   760       H         57.21800000  *  147.32500000  * -47.29300000  *
   761       C         58.41200000  *  145.57700000  * -47.59200000  *
   762       H         58.61300000  *  145.80400000  * -48.64400000  *
   763       H         59.28800000  *  145.12100000  * -47.15800000  *
   764       C         57.28700000  *  144.52700000  * -47.51900000  *
   765       H         57.05600000  *  144.28000000  * -46.48700000  *
   766       C         56.00700000  *  145.04400000  * -48.19600000  *
   767       H         56.23500000  *  145.37800000  * -49.20200000  *
   768       H         55.26800000  *  144.24500000  * -48.23100000  *
   769       H         55.59500000  *  145.87000000  * -47.62900000  *
   770       C         57.76800000  *  143.24900000  * -48.17500000  *
   771       H         58.61500000  *  142.85400000  * -47.62000000  *
   772       H         56.97300000  *  142.50400000  * -48.17100000  *
   773       H         58.06400000  *  143.44500000  * -49.20700000  *
   774       C         57.76400000  *  146.61300000  * -45.36900000  *
   775       O         56.60900000  *  146.37600000  * -45.03000000  *
   776       N         58.75700000  *  146.67700000  * -44.48800000  *
   777       H         59.64000000  *  147.08600000  * -44.79000000  *
   778       C         58.49100000  *  146.46700000  * -43.07300000  *
   779       H         57.97900000  *  145.55100000  * -42.87200000  *
   780       C         59.78200000  *  146.47800000  * -42.25400000  *
   781       H         60.44800000  *  145.70000000  * -42.62000000  *
   782       H         60.28600000  *  147.44000000  * -42.35600000  *
   783       C         59.49200000  *  146.22900000  * -40.76500000  *
   784       H         58.94200000  *  147.08300000  * -40.37400000  *
   785       H         58.87100000  *  145.33200000  * -40.67600000  *
   786       C         60.74500000  *  146.03800000  * -39.93500000  *
   787       H         61.36100000  *  145.25900000  * -40.37900000  *
   788       H         61.30800000  *  146.97100000  * -39.90700000  *
   789       C         60.37600000  *  145.60700000  * -38.51700000  *
   790       H         59.98500000  *  144.58900000  * -38.53700000  *
   791       H         61.27900000  *  145.61300000  * -37.90300000  *
   792       N         59.34600000  *  146.53100000  * -37.94700000  *
   793       H         58.44600000  *  146.48100000  * -38.44300000  *
   794       H         59.09000000  *  146.27800000  * -37.00400000  *
   795       H         59.61300000  *  147.50600000  * -37.97800000  *
   796       C         57.55800000  *  147.53800000  * -42.51200000  *
   797       O         56.61300000  *  147.23400000  * -41.78300000  *
   798       N         57.83200000  *  148.81200000  * -42.80400000  *
   799       H         58.66000000  *  149.00800000  * -43.37000000  *
   800       C         57.00900000  *  149.93000000  * -42.32900000  *
   801       H         56.89700000  *  149.84200000  * -41.24700000  *
   802       C         57.72100000  *  151.25700000  * -42.63100000  *
   803       H         58.74500000  *  151.19700000  * -42.25800000  *
   804       H         57.75500000  *  151.41600000  * -43.70900000  *
   805       C         57.02500000  *  152.44600000  * -41.95000000  *
   806       H         56.02600000  *  152.57000000  * -42.36800000  *
   807       H         56.93300000  *  152.24200000  * -40.88200000  *
   808       C         57.82200000  *  153.74400000  * -42.13900000  *
   809       H         58.80500000  *  153.63200000  * -41.67700000  *
   810       H         57.95100000  *  153.94300000  * -43.20500000  *
   811       C         57.07500000  *  154.91200000  * -41.48400000  *
   812       H         56.09600000  *  155.01400000  * -41.96200000  *
   813       H         56.90800000  *  154.67300000  * -40.42900000  *
   814       N         57.83100000  *  156.18500000  * -41.59700000  *
   815       H         57.98000000  *  156.44000000  * -42.56300000  *
   816       H         57.33100000  *  156.94300000  * -41.15500000  *
   817       H         58.73300000  *  156.11500000  * -41.14900000  *
   818       C         55.60500000  *  149.84500000  * -42.92600000  *
   819       O         54.62700000  *  150.09300000  * -42.22800000  *
   820       N         55.49500000  *  149.42600000  * -44.18900000  *
   821       H         56.35000000  *  149.26300000  * -44.71300000  *
   822       C         54.20500000  *  149.26000000  * -44.85200000  *
   823       H         53.62600000  *  150.17500000  * -44.72500000  *
   824       C         54.41000000  *  148.98800000  * -46.34000000  *
   825       H         54.98900000  *  149.80200000  * -46.77700000  *
   826       H         55.00200000  *  148.07700000  * -46.45200000  *
   827       C         53.12600000  *  148.85300000  * -47.10800000  *
   828       C         52.23100000  *  149.92200000  * -47.18600000  *
   829       H         52.46300000  *  150.85600000  * -46.69900000  *
   830       C         51.01500000  *  149.79500000  * -47.88400000  *
   831       H         50.32500000  *  150.62800000  * -47.91800000  *
   832       C         50.69700000  *  148.60300000  * -48.50200000  *
   833       H         49.75200000  *  148.50200000  * -49.02000000  *
   834       C         51.58700000  *  147.52100000  * -48.43200000  *
   835       H         51.33500000  *  146.58300000  * -48.91200000  *
   836       C         52.79500000  *  147.65400000  * -47.73300000  *
   837       H         53.46700000  *  146.81000000  * -47.67200000  *
   838       C         53.37400000  *  148.12200000  * -44.22700000  *
   839       O         52.16900000  *  148.28300000  * -44.00900000  *
   840       N         54.01600000  *  146.98100000  * -43.96600000  *
   841       H         55.00900000  *  146.90600000  * -44.17900000  *
   842       C         53.33800000  *  145.83600000  * -43.34100000  *
   843       H         52.47600000  *  145.52800000  * -43.93400000  *
   844       C         54.29200000  *  144.65000000  * -43.17000000  *
   845       H         55.15800000  *  145.02700000  * -42.63600000  *
   846       H         53.80700000  *  143.89200000  * -42.54700000  *
   847       C         54.73100000  *  144.00400000  * -44.46100000  *
   848       H         53.84700000  *  143.61400000  * -44.95900000  *
   849       H         55.19200000  *  144.69400000  * -45.15000000  *
   850       S         55.79700000  *  142.58100000  * -44.15400000  *
   851       C         57.05400000  *  143.29200000  * -43.18800000  *
   852       H         56.67800000  *  143.65800000  * -42.23500000  *
   853       H         57.80700000  *  142.53400000  * -42.98200000  *
   854       H         57.44300000  *  144.07900000  * -43.80900000  *
   855       C         52.84400000  *  146.26000000  * -41.95900000  *
   856       O         51.68200000  *  146.03200000  * -41.61400000  *
   857       N         53.72600000  *  146.88400000  * -41.17900000  *
   858       H         54.70100000  *  146.95700000  * -41.45300000  *
   859       C         53.34300000  *  147.35100000  * -39.84600000  *
   860       H         53.03400000  *  146.49700000  * -39.23800000  *
   861       C         54.50500000  *  148.07700000  * -39.15700000  *
   862       H         54.94100000  *  148.81500000  * -39.83000000  *
   863       H         54.12400000  *  148.60600000  * -38.28400000  *
   864       C         55.58400000  *  147.11500000  * -38.68500000  *
   865       O         55.26200000  *  145.90900000  * -38.57600000  *
   866       O         56.73300000  *  147.55200000  * -38.41700000  *
   867       C         52.15000000  *  148.27900000  * -39.96300000  *
   868       O         51.20300000  *  148.18000000  * -39.18700000  *
   869       N         52.18300000  *  149.16200000  * -40.95500000  *
   870       H         53.01600000  *  149.23700000  * -41.51800000  *
   871       C         51.08600000  *  150.10000000  * -41.17300000  *
   872       H         50.93100000  *  150.67400000  * -40.25800000  *
   873       C         51.42800000  *  151.06800000  * -42.31500000  *
   874       H         51.45500000  *  150.53900000  * -43.26600000  *
   875       H         50.66000000  *  151.83800000  * -42.36800000  *
   876       H         52.39300000  *  151.53600000  * -42.12800000  *
   877       C         49.78900000  *  149.37000000  * -41.49900000  *
   878       O         48.71100000  *  149.83600000  * -41.15600000  *
   879       N         49.90500000  *  148.22900000  * -42.16400000  *
   880       H         50.83800000  *  147.88500000  * -42.38200000  *
   881       C         48.74000000  *  147.45400000  * -42.57500000  *
   882       H         47.85700000  *  148.08600000  * -42.62800000  *
   883       H         48.90600000  *  147.02300000  * -43.58600000  *
   884       H         48.52600000  *  146.61900000  * -41.88800000  *
   885       H         72.54500000  *  137.05800000  * -55.15200000  *
   886       C         72.38600000  *  137.90500000  * -54.47400000  *
   887       O         73.28300000  *  138.71900000  * -54.28600000  *
   888       N         71.20100000  *  138.01500000  * -53.89800000  *
   889       H         70.47300000  *  137.31400000  * -54.05700000  *
   890       C         70.96800000  *  139.10000000  * -52.94900000  *
   891       H         71.50000000  *  140.00600000  * -53.22900000  *
   892       C         69.47700000  *  139.40500000  * -52.82500000  *
   893       H         69.09300000  *  139.71900000  * -53.79200000  *
   894       H         68.93000000  *  138.50600000  * -52.53300000  *
   895       C         69.17800000  *  140.45400000  * -51.81200000  *
   896       N         69.23000000  *  140.42300000  * -50.45900000  *
   897       C         68.94700000  *  141.69100000  * -50.01400000  *
   898       H         68.96900000  *  142.01200000  * -48.98400000  *
   899       N         68.72400000  *  142.47200000  * -51.05500000  *
   900       H         68.47200000  *  143.44500000  * -51.00700000  *
   901       C         68.85400000  *  141.75000000  * -52.15500000  *
   902       H         68.77100000  *  142.12600000  * -53.16500000  *
   903       C         71.52100000  *  138.65700000  * -51.58300000  *
   904       O         72.28000000  *  139.38000000  * -50.94700000  *
   905       N         71.11400000  *  137.47100000  * -51.14500000  *
   906       H         70.37100000  *  137.01600000  * -51.66500000  *
   907       C         71.55500000  *  136.88000000  * -49.87700000  *
   908       H         71.18200000  *  135.84900000  * -49.87900000  *
   909       C         73.07600000  *  136.85300000  * -49.83700000  *
   910       H         73.53100000  *  137.83300000  * -49.86900000  *
   911       H         73.36600000  *  136.47900000  * -48.85100000  *
   912       C         73.64700000  *  135.85900000  * -50.81700000  *
   913       H         73.29800000  *  134.87100000  * -50.67200000  *
   914       H         73.21600000  *  136.10500000  * -51.78700000  *
   915       C         75.11700000  *  136.08400000  * -50.99900000  *
   916       H         75.61200000  *  135.95400000  * -50.03300000  *
   917       H         75.49500000  *  135.33200000  * -51.69500000  *
   918       N         75.35800000  *  137.42700000  * -51.50600000  *
   919       H         74.62100000  *  138.12700000  * -51.38200000  *
   920       C         76.54800000  *  137.85900000  * -51.89000000  *
   921       N         77.59300000  *  137.04400000  * -51.81500000  *
   922       H         77.44700000  *  136.21200000  * -51.26800000  *
   923       H         78.49900000  *  137.44300000  * -51.92100000  *
   924       N         76.69000000  *  139.09300000  * -52.35600000  *
   925       H         75.86000000  *  139.69200000  * -52.33800000  *
   926       H         77.56200000  *  139.47800000  * -52.67100000  *
   927       C         71.03700000  *  137.42400000  * -48.54200000  *
   928       O         71.18700000  *  136.76800000  * -47.50900000  *
   929       N         70.43700000  *  138.60400000  * -48.51600000  *
   930       H         70.32800000  *  139.16900000  * -49.34700000  *
   931       C         69.93700000  *  139.07600000  * -47.23100000  *
   932       H         69.76500000  *  138.24900000  * -46.54100000  *
   933       C         70.93500000  *  140.04200000  * -46.56200000  *
   934       H         71.90900000  *  139.56600000  * -46.50900000  *
   935       H         71.04400000  *  140.94300000  * -47.17900000  *
   936       C         70.51300000  *  140.42800000  * -45.14700000  *
   937       O         70.17200000  *  139.51500000  * -44.35500000  *
   938       O         70.51000000  *  141.64400000  * -44.82500000  *
   939       C         68.58700000  *  139.73400000  * -47.37800000  *
   940       O         68.35000000  *  140.81000000  * -46.83500000  *
   941       N         67.68700000  *  139.08300000  * -48.11000000  *
   942       H         67.94300000  *  138.20800000  * -48.54500000  *
   943       C         66.35900000  *  139.64900000  * -48.29900000  *
   944       H         66.47700000  *  140.66700000  * -48.65900000  *
   945       C         65.54600000  *  138.81300000  * -49.28800000  *
   946       H         65.58300000  *  137.78400000  * -48.94500000  *
   947       H         64.50600000  *  139.14000000  * -49.25500000  *
   948       C         66.02700000  *  138.85500000  * -50.73600000  *
   949       H         67.06400000  *  138.52800000  * -50.78200000  *
   950       C         65.17300000  *  137.91700000  * -51.58300000  *
   951       H         64.15900000  *  138.30500000  * -51.68800000  *
   952       H         65.63400000  *  137.80700000  * -52.55000000  *
   953       H         65.13400000  *  136.93500000  * -51.11000000  *
   954       C         65.92100000  *  140.27700000  * -51.26400000  *
   955       H         66.42000000  *  140.99600000  * -50.63300000  *
   956       H         66.44200000  *  140.27500000  * -52.20900000  *
   957       H         64.88200000  *  140.56100000  * -51.39700000  *
   958       C         65.59400000  *  139.73400000  * -46.98200000  *
   959       O         65.58600000  *  138.79200000  * -46.16600000  *
   960       N         64.95400000  *  140.85400000  * -46.74600000  *
   961       H         64.96400000  *  141.58600000  * -47.44400000  *
   962       C         64.16100000  *  141.05800000  * -45.55000000  *
   963       H         63.54900000  *  140.16700000  * -45.41500000  *
   964       C         65.03500000  *  141.21800000  * -44.28700000  *
   965       H         64.39800000  *  141.28100000  * -43.40500000  *
   966       H         65.63200000  *  140.31300000  * -44.16900000  *
   967       C         65.97300000  *  142.43100000  * -44.28800000  *
   968       H         66.38700000  *  142.57900000  * -45.28300000  *
   969       H         65.41900000  *  143.32100000  * -43.99300000  *
   970       C         67.12400000  *  142.16600000  * -43.31200000  *
   971       H         66.72200000  *  141.89300000  * -42.33400000  *
   972       H         67.70400000  *  141.32400000  * -43.70000000  *
   973       C         68.03300000  *  143.38800000  * -43.15800000  *
   974       H         68.13900000  *  143.88100000  * -44.13000000  *
   975       H         67.55300000  *  144.09700000  * -42.47300000  *
   976       N         69.36700000  *  142.97600000  * -42.64800000  *
   977       H         69.86000000  *  142.41400000  * -43.35700000  *
   978       H         69.93100000  *  143.78200000  * -42.41100000  *
   979       H         69.27200000  *  142.41400000  * -41.81200000  *
   980       C         63.26300000  *  142.22700000  * -45.84000000  *
   981       O         63.62300000  *  143.07000000  * -46.66100000  *
   982       N         62.11200000  *  142.30300000  * -45.18600000  *
   983       C         61.62600000  *  141.34600000  * -44.17100000  *
   984       H         62.10000000  *  141.53200000  * -43.20900000  *
   985       H         61.74500000  *  140.31100000  * -44.47600000  *
   986       C         60.16400000  *  141.66900000  * -44.09500000  *
   987       H         59.73700000  *  141.34900000  * -43.14300000  *
   988       H         59.63700000  *  141.20600000  * -44.93200000  *
   989       C         60.16000000  *  143.18900000  * -44.24800000  *
   990       H         60.51600000  *  143.64900000  * -43.32100000  *
   991       H         59.20200000  *  143.56500000  * -44.57400000  *
   992       C         61.14500000  *  143.38000000  * -45.40300000  *
   993       H         60.63400000  *  143.20500000  * -46.34500000  *
   994       C         61.77100000  *  144.77100000  * -45.44800000  *
   995       O         61.39200000  *  145.58400000  * -46.27300000  *
   996       N         62.72800000  *  145.08400000  * -44.55700000  *
   997       H         62.96900000  *  144.39000000  * -43.86500000  *
   998       C         63.45800000  *  146.37400000  * -44.52900000  *
   999       H         62.73700000  *  147.18600000  * -44.41900000  *
  1000       C         64.42900000  *  146.41800000  * -43.33600000  *
  1001       H         65.12200000  *  145.58100000  * -43.41500000  *
  1002       H         65.01500000  *  147.33700000  * -43.40200000  *
  1003       C         63.75800000  *  146.39800000  * -41.95500000  *
  1004       H         63.08300000  *  147.25100000  * -41.88100000  *
  1005       H         63.17800000  *  145.48400000  * -41.84000000  *
  1006       C         64.78500000  *  146.45600000  * -40.82100000  *
  1007       O         65.82000000  *  145.80400000  * -40.84700000  *
  1008       N         64.54200000  *  147.22000000  * -39.77900000  *
  1009       H         65.22800000  *  147.24800000  * -39.03800000  *
  1010       H         63.71700000  *  147.79900000  * -39.73800000  *
  1011       C         64.28400000  *  146.66500000  * -45.80100000  *
  1012       O         64.49000000  *  147.82000000  * -46.16400000  *
  1013       N         64.76000000  *  145.61800000  * -46.47700000  *
  1014       H         64.46800000  *  144.69900000  * -46.17800000  *
  1015       C         65.53500000  *  145.67900000  * -47.71700000  *
  1016       H         66.09800000  *  146.61200000  * -47.75400000  *
  1017       C         66.55100000  *  144.50700000  * -47.74300000  *
  1018       H         66.05100000  *  143.57900000  * -47.47900000  *
  1019       H         66.93200000  *  144.38500000  * -48.75500000  *
  1020       C         67.77200000  *  144.69900000  * -46.85100000  *
  1021       O         68.06100000  *  145.77700000  * -46.35900000  *
  1022       N         68.53900000  *  143.65900000  * -46.60200000  *
  1023       H         69.40600000  *  143.81200000  * -46.11400000  *
  1024       H         68.29900000  *  142.71100000  * -46.87600000  *
  1025       C         64.63200000  *  145.69400000  * -48.96800000  *
  1026       O         65.15500000  *  145.59900000  * -50.07600000  *
  1027       N         63.30000000  *  145.80300000  * -48.83400000  *
  1028       H         62.89500000  *  145.87300000  * -47.90900000  *
  1029       C         62.40600000  *  145.84500000  * -49.97900000  *
  1030       H         62.94700000  *  145.74800000  * -50.91900000  *
  1031       C         61.36900000  *  144.72100000  * -49.88900000  *
  1032       H         60.76900000  *  144.86100000  * -48.99200000  *
  1033       H         60.74400000  *  144.79800000  * -50.77200000  *
  1034       C         62.03600000  *  143.32400000  * -49.85900000  *
  1035       H         62.67100000  *  143.24000000  * -48.98800000  *
  1036       C         61.00200000  *  142.26000000  * -49.77100000  *
  1037       H         60.24600000  *  142.42800000  * -50.53400000  *
  1038       H         61.44700000  *  141.27100000  * -49.89000000  *
  1039       H         60.52000000  *  142.31900000  * -48.79800000  *
  1040       C         62.89500000  *  143.12600000  * -51.08400000  *
  1041       H         63.82900000  *  143.66800000  * -50.95600000  *
  1042       H         63.12900000  *  142.06900000  * -51.20900000  *
  1043       H         62.39300000  *  143.49200000  * -51.96600000  *
  1044       C         61.76300000  *  147.21800000  * -49.95200000  *
  1045       O         61.15000000  *  147.60200000  * -48.96600000  *
  1046       N         61.89400000  *  147.98400000  * -51.02700000  *
  1047       H         62.38600000  *  147.61300000  * -51.83500000  *
  1048       C         61.43600000  *  149.37200000  * -51.06300000  *
  1049       H         61.05900000  *  149.67700000  * -50.08900000  *
  1050       C         62.58800000  *  150.29500000  * -51.42900000  *
  1051       H         62.90700000  *  150.06800000  * -52.44800000  *
  1052       H         62.20800000  *  151.31400000  * -51.39700000  *
  1053       C         63.80100000  *  150.18800000  * -50.50500000  *
  1054       H         64.24500000  *  149.19900000  * -50.59000000  *
  1055       C         64.79600000  *  151.22600000  * -50.98300000  *
  1056       H         64.43500000  *  152.21400000  * -50.71600000  *
  1057       H         65.76000000  *  151.03200000  * -50.52600000  *
  1058       H         64.90900000  *  151.19300000  * -52.06100000  *
  1059       C         63.47300000  *  150.46300000  * -49.03900000  *
  1060       H         62.86600000  *  149.65000000  * -48.64700000  *
  1061       H         64.38700000  *  150.50700000  * -48.45400000  *
  1062       H         62.92900000  *  151.40200000  * -48.94000000  *
  1063       C         60.31100000  *  149.54700000  * -52.05900000  *
  1064       O         60.40000000  *  149.07600000  * -53.17900000  *
  1065       N         59.26800000  *  150.25600000  * -51.67700000  *
  1066       H         59.36500000  *  150.76300000  * -50.80000000  *
  1067       C         58.08300000  *  150.44700000  * -52.50800000  *
  1068       H         58.17300000  *  149.92400000  * -53.45700000  *
  1069       C         56.81900000  *  149.90600000  * -51.78600000  *
  1070       H         55.94300000  *  150.08700000  * -52.41500000  *
  1071       C         56.95000000  *  148.40400000  * -51.54300000  *
  1072       H         57.75300000  *  148.18300000  * -50.83300000  *
  1073       H         56.01300000  *  148.00400000  * -51.15200000  *
  1074       H         57.15800000  *  147.91500000  * -52.48900000  *
  1075       C         56.64700000  *  150.60600000  * -50.43300000  *
  1076       H         57.48200000  *  150.38000000  * -49.77500000  *
  1077       H         56.60500000  *  151.68300000  * -50.57600000  *
  1078       C         55.37000000  *  150.22200000  * -49.68600000  *
  1079       H         55.48900000  *  149.24800000  * -49.22200000  *
  1080       H         55.17000000  *  150.96500000  * -48.91000000  *
  1081       H         54.52900000  *  150.16800000  * -50.38500000  *
  1082       C         57.87200000  *  151.93000000  * -52.81700000  *
  1083       O         58.38200000  *  152.79400000  * -52.10000000  *
  1084       N         57.14900000  *  152.22000000  * -53.89700000  *
  1085       H         56.70500000  *  151.48200000  * -54.43300000  *
  1086       C         56.84100000  *  153.60200000  * -54.22700000  *
  1087       H         57.16800000  *  154.27800000  * -53.43100000  *
  1088       C         57.50400000  *  154.05300000  * -55.54100000  *
  1089       H         57.21800000  *  155.07000000  * -55.80500000  *
  1090       H         58.58200000  *  154.04400000  * -55.38800000  *
  1091       C         57.19300000  *  153.14600000  * -56.70100000  *
  1092       O         56.13500000  *  152.53500000  * -56.76400000  *
  1093       N         58.11500000  *  153.07200000  * -57.64100000  *
  1094       H         57.83300000  *  152.61700000  * -58.48600000  *
  1095       H         58.88600000  *  153.71500000  * -57.62100000  *
  1096       C         55.33100000  *  153.75800000  * -54.32100000  *
  1097       O         54.57600000  *  152.79900000  * -54.11400000  *
  1098       N         54.88500000  *  154.97100000  * -54.62100000  *
  1099       H         55.52100000  *  155.73600000  * -54.79200000  *
  1100       C         53.46400000  *  155.24700000  * -54.72300000  *
  1101       H         52.92700000  *  154.82600000  * -53.87200000  *
  1102       C         53.20900000  *  156.78000000  * -54.75500000  *
  1103       H         52.16900000  *  156.98000000  * -55.02600000  *
  1104       C         53.47800000  *  157.39700000  * -53.41000000  *
  1105       H         54.52100000  *  157.25500000  * -53.13000000  *
[...]
 1005  H   0.83090
 1006  C   1.06518   0.80075   0.73110   0.79811
 1007  O   1.87728   1.40074   1.57252   1.84269
 1008  N   1.52731   1.33746   1.45470   1.28239
 1009  H   0.65745
 1010  H   0.66300
 1011  C   1.08319   0.75640   0.78144   0.81580
 1012  O   1.88450   1.65969   1.31265   1.73238
 1013  N   1.55098   1.50862   1.20208   1.30072
 1014  H   0.66614
 1015  C   1.07184   0.94699   1.09544   0.82124
 1016  H   0.80456
 1017  C   1.07068   1.04982   1.09038   1.16350
 1018  H   0.83158
 1019  H   0.79645
 1020  C   1.05850   0.80344   0.76551   0.75771
 1021  O   1.87583   1.77505   1.40389   1.61473
 1022  N   1.53118   1.31148   1.19669   1.58359
 1023  H   0.66512
 1024  H   0.65495
 1025  C   1.08722   0.78521   0.71975   0.85273
 1026  O   1.87862   1.76638   1.61047   1.38167
 1027  N   1.54102   1.12635   1.66434   1.18343
 1028  H   0.65349
 1029  C   1.06992   0.96900   0.97989   0.97464
 1030  H   0.81125
 1031  C   1.06730   1.06456   0.99778   1.17275
 1032  H   0.83729
 1033  H   0.84815
 1034  C   1.04101   1.01189   0.94637   1.06220
 1035  H   0.85574
 1036  C   1.04919   1.12588   1.11846   1.17073
 1037  H   0.84496
 1038  H   0.84903
 1039  H   0.86567
 1040  C   1.05154   1.14170   1.17174   1.09909
 1041  H   0.84439
 1042  H   0.85772
 1043  H   0.84999
 1044  C   1.07613   0.74997   0.84289   0.75594
 1045  O   1.87196   1.53801   1.79699   1.44566
 1046  N   1.54553   1.55345   1.17296   1.24830
 1047  H   0.64519
 1048  C   1.06410   0.98799   0.82779   1.10104
 1049  H   0.81255
 1050  C   1.06406   1.02559   1.10508   1.12652
 1051  H   0.84570
 1052  H   0.84086
 1053  C   1.04756   0.96962   1.07077   0.96767
 1054  H   0.86554
 1055  C   1.05354   1.12870   1.12890   1.16409
 1056  H   0.84654
 1057  H   0.84949
 1058  H   0.85763
 1059  C   1.05439   1.17563   1.17597   1.04707
 1060  H   0.84029
 1061  H   0.85279
 1062  H   0.84796
 1063  C   1.07369   0.79916   0.74423   0.81678
 1064  O   1.86763   1.83080   1.62554   1.34558
 1065  N   1.54070   1.19457   1.46461   1.29716
 1066  H   0.64337
 1067  C   1.07609   0.88947   1.00771   1.04180
 1068  H   0.81007
 1069  C   1.06427   1.01547   0.99294   1.02011
 1070  H   0.85053
 1071  C   1.05462   1.18099   1.03438   1.17649
 1072  H   0.84319
 1073  H   0.84546
 1074  H   0.85337
 1075  C   1.05406   1.07006   1.12014   1.03143
 1076  H   0.84422
 1077  H   0.86079
 1078  C   1.05246   1.08959   1.15742   1.13184
 1079  H   0.84844
 1080  H   0.87776
 1081  H   0.84734
 1082  C   1.08582   0.74315   0.88687   0.74320
 1083  O   1.88690   1.56808   1.57594   1.55669
 1084  N   1.54275   1.50721   1.14417   1.33731
 1085  H   0.64414
 1086  C   1.06257   0.97108   0.88379   1.03859
 1087  H   0.80149
 1088  C   1.07230   1.18070   1.12624   1.02286
 1089  H   0.81070
 1090  H   0.80552
 1091  C   1.06114   0.76067   0.76993   0.82305
 1092  O   1.87999   1.35641   1.57030   1.83607
 1093  N   1.53433   1.29837   1.49553   1.27245
 1094  H   0.67220
 1095  H   0.66482
 1096  C   1.08284   0.88455   0.75838   0.71148
 1097  O   1.88759   1.65505   1.46945   1.59078
 1098  N   1.54003   1.14466   1.19793   1.67161
 1099  H   0.66266
 1100  C   1.08545   0.83780   1.05763   1.08146
 1101  H   0.80399
 1102  C   1.08417   0.99082   0.86728   0.88996
 1103  H   0.84748
 1104  C   1.05385   1.18460   1.17996   1.05476
 1105  H   0.84088
 1106  H   0.82460
 1107  H   0.82914
 1108  O   1.84894   1.59191   1.82286   1.34480
 1109  H   0.64308
 1110  C   1.07358   0.78884   0.75525   0.82433
 1111  O   1.87781   1.28022   1.68935   1.84900
 1112  N   1.53340   1.19378   1.53470   1.21093
 1113  H   0.66666
 1114  C   1.05707   1.15365   1.13328   0.89333
 1115  H   0.83548
 1116  H   0.83802
 1117  H   0.83551
 1118  H   0.83992
 1119  C   1.10501   0.75521   0.73550   0.91349
 1120  O   1.88317   1.71077   1.59632   1.48256
 1121  N   1.54489   1.42813   1.34571   1.20835
 1122  H   0.65365
 1123  C   1.08083   0.93068   1.08479   0.93131
 1124  H   0.80881
 1125  C   1.07308   1.07902   0.95360   0.98254
 1126  H   0.84410
 1127  C   1.05810   1.18699   1.08408   1.12923
 1128  H   0.84368
 1129  H   0.84852
 1130  H   0.85223
 1131  C   1.05415   1.07569   1.13491   1.01856
 1132  H   0.85382
 1133  H   0.85400
 1134  C   1.04916   1.14385   1.15085   1.09060
 1135  H   0.85013
 1136  H   0.85970
 1137  H   0.84944
 1138  C   1.07224   0.84185   0.73654   0.77745
 1139  O   1.87771   1.89055   1.52115   1.39099
 1140  N   1.54497   1.10267   1.52652   1.33583
 1141  H   0.63178
 1142  C   1.06986   0.84618   1.05335   1.03770
 1143  H   0.81802
 1144  C   1.06006   1.09274   1.04622   1.09618
 1145  H   0.83666
 1146  H   0.84654
 1147  C   1.05103   1.08550   1.04442   1.07777
 1148  H   0.85011
 1149  H   0.84480
 1150  C   1.05939   1.08189   1.05476   1.09870
 1151  H   0.84051
 1152  H   0.83244
 1153  C   1.07881   1.02189   0.99738   1.07404
 1154  H   0.81172
 1155  H   0.83376
 1156  N   1.45932   1.23081   1.22950   1.25670
 1157  H   0.69396
 1158  H   0.70035
 1159  H   0.68667
 1160  C   1.07836   0.77978   0.75034   0.82546
 1161  O   1.88111   1.77261   1.69292   1.29073
 1162  N   1.54480   1.32894   1.42544   1.23090
 1163  H   0.64032
 1164  C   1.07026   0.91836   0.95742   1.02929
 1165  H   0.83171
 1166  C   1.06275   1.10013   1.01945   1.13295
 1167  H   0.83522
 1168  H   0.84487
 1169  C   1.05369   1.07061   0.96096   0.96355
 1170  H   0.85954
 1171  C   1.06223   1.16613   1.13940   1.09230
 1172  H   0.85193
 1173  H   0.84918
 1174  H   0.85271
 1175  C   1.05739   1.18271   1.13695   1.08870
 1176  H   0.85343
 1177  H   0.84827
 1178  H   0.85429
 1179  C   1.08521   0.79145   0.79832   0.75827
 1180  O   1.88082   1.63522   1.59936   1.53793
 1181  N   1.54393   1.36966   1.43747   1.15977
 1182  H   0.64623
 1183  C   1.06691   0.91424   0.92825   1.04877
 1184  H   0.83243
 1185  C   1.05949   1.16369   1.08789   1.15309
 1186  H   0.82136
 1187  H   0.83257
 1188  H   0.82798
 1189  C   1.08738   0.78870   0.78355   0.74758
 1190  O   1.87256   1.84517   1.36346   1.58963
 1191  N   1.54658   1.16956   1.32792   1.49060
 1192  H   0.67341
 1193  C   1.07548   0.87606   1.08285   0.93311
 1194  H   0.81120
 1195  C   1.07953   1.14162   1.18442   1.00523
 1196  H   0.81095
 1197  H   0.82912
 1198  C   1.07292   0.74104   0.71631   0.70712
 1199  O   1.88624   1.80799   1.49024   1.54549
 1200  O   1.87189   1.65915   1.52722   1.81133
 1201  C   1.09128   0.82097   0.79595   0.74830
 1202  O   1.88773   1.27596   1.80957   1.55839
 1203  N   1.56774   1.29363   1.16904   1.54625
 1204  H   0.67988
 1205  C   1.07932   1.01881   0.91926   0.95297
 1206  H   0.83949
 1207  C   1.05571   1.07695   1.20332   0.96280
 1208  H   0.81257
 1209  H   0.82064
 1210  C   1.07483   0.97431   0.97733   0.96995
 1211  C   1.09015   1.04112   1.04150   1.01416
 1212  H   0.83968
 1213  C   1.08860   0.98546   1.06191   1.01094
 1214  H   0.84226
 1215  C   1.08747   1.05960   0.99155   1.03198
 1216  H   0.84778
 1217  C   1.08930   1.03737   1.03646   0.99033
 1218  H   0.83217
 1219  C   1.08748   0.98580   1.06437   1.02308
 1220  H   0.83734
 1221  C   1.09029   0.80310   0.77316   0.76271
 1222  O   1.88541   1.44346   1.55870   1.71359
 1223  N   1.53972   1.41529   1.43878   1.13724
 1224  H   0.68632
 1225  C   1.06838   0.98857   1.06885   0.98044
 1226  H   0.81647
 1227  H   0.80509
 1228  C   1.07980   0.82848   0.77904   0.70355
 1229  O   1.87718   1.84031   1.32319   1.60825
 1230  N   1.55921   1.30215   1.23369   1.45061
 1231  H   0.67491
 1232  C   1.07784   0.89787   1.03331   0.96966
 1233  H   0.83197
 1234  C   1.06795   1.11421   0.95026   1.17367
 1235  H   0.84118
 1236  H   0.82879
 1237  C   1.05178   1.03095   0.96019   1.01241
 1238  H   0.86302
 1239  C   1.05589   1.16889   1.06821   1.16164
 1240  H   0.85858
 1241  H   0.84206
 1242  H   0.85786
 1243  C   1.05568   1.17220   1.18962   1.04523
 1244  H   0.84142
 1245  H   0.83892
 1246  H   0.85814
 1247  C   1.09502   0.85789   0.76670   0.72758
 1248  O   1.88132   1.32410   1.78601   1.59267
 1249  N   1.58209   1.28170   1.23273   1.52147
 1250  H   0.66103
 1251  C   1.06872   0.96494   0.99758   0.95374
 1252  H   0.83607
 1253  C   1.05858   1.13921   1.09707   1.17434
 1254  H   0.84393
 1255  H   0.80957
 1256  H   0.81118
 1257  C   1.07563   0.83420   0.75255   0.78167
 1258  O   1.88399   1.49906   1.59878   1.64920
 1259  N   1.54300   1.31154   1.51232   1.14403
 1260  H   0.67637
 1261  C   1.06251   0.92397   1.14575   1.10582
 1262  H   0.82620
 1263  H   0.82960
 1264  H   0.83894
 1265  H   0.84120
 1266  C   1.10478   0.72492   0.79432   0.87705
 1267  O   1.88388   1.53286   1.36156   1.88303
 1268  N   1.54281   1.48763   1.35123   1.14845
 1269  H   0.67735
 1270  C   1.07278   1.11694   0.96750   0.82289
 1271  H   0.80256
 1272  C   1.05754   1.08997   1.02761   1.15056
 1273  H   0.83930
 1274  H   0.82057
 1275  C   1.06439   0.97784   0.95036   0.96836
 1276  C   1.08300   1.01999   0.99431   1.05937
 1277  H   0.83865
 1278  C   1.08254   1.04656   1.02691   0.99717
 1279  H   0.84377
 1280  C   1.08142   1.00614   1.05573   1.02598
 1281  H   0.84902
 1282  C   1.08077   1.02444   1.00379   1.05493
 1283  H   0.85466
 1284  C   1.08279   1.05999   1.02710   0.99705
 1285  H   0.84081
 1286  C   1.08001   0.76684   0.78619   0.79911
 1287  O   1.88376   1.53940   1.68077   1.53398
 1288  N   1.53633   1.17516   1.34765   1.43125
 1289  H   0.67326
 1290  C   1.05783   1.14245   0.97560   0.99840
 1291  H   0.81520
 1292  H   0.78912
 1293  C   1.07418   0.78809   0.75777   0.80189
 1294  O   1.88132   1.54067   1.38286   1.84152
 1295  N   1.53621   1.41053   1.37797   1.17740
 1296  H   0.65064
 1297  C   1.07416   1.00261   1.19819   0.87811
 1298  H   0.81325
 1299  H   0.79413
 1300  C   1.08206   0.77432   0.74511   0.80732
 1301  O   1.88291   1.52155   1.53258   1.73118
 1302  N   1.56471   1.44497   1.16597   1.26733
 1303  C   1.07075   1.06912   0.87086   1.05660
 1304  H   0.83631
 1305  H   0.84105
 1306  C   1.05707   1.04762   1.13531   1.05887
 1307  H   0.84532
 1308  H   0.80826
 1309  C   1.06099   1.08148   0.98355   1.17235
 1310  H   0.83540
 1311  H   0.81912
 1312  C   1.07356   1.05283   1.00099   0.86816
 1313  H   0.81311
 1314  C   1.08822   0.76367   0.76848   0.82877
 1315  O   1.88394   1.42689   1.43551   1.88334
 1316  N   1.54311   1.40341   1.48370   1.11752
 1317  H   0.64348
 1318  C   1.08221   1.04972   1.11408   0.89109
 1319  H   0.80092
 1320  H   0.78738
 1321  C   1.08824   0.82551   0.73036   0.77837
 1322  O   1.88492   1.70325   1.72967   1.32947
 1323  N   1.55110   1.23253   1.41126   1.34464
 1324  H   0.68839
 1325  C   1.07568   0.85979   1.06397   0.97856
 1326  H   0.82216
 1327  C   1.05960   1.16898   1.07555   0.97639
 1328  H   0.83487
 1329  H   0.83872
 1330  C   1.05818   1.13840   1.07474   1.02395
 1331  H   0.82468
 1332  H   0.87160
 1333  C   1.06374   1.08747   1.10000   0.78144
 1334  H   0.85048
 1335  H   0.81936
 1336  N   1.53280   1.62693   1.28991   1.09341
 1337  H   0.64879
 1338  C   0.97599   0.83629   0.80292   0.79452
 1339  N   1.50145   1.56338   1.25851   1.24812
 1340  H   0.67467
 1341  H   0.62636
 1342  N   1.50405   1.55703   1.35351   1.14116
 1343  H   0.64458
 1344  H   0.63721
 1345  C   1.08247   0.75744   0.77389   0.84369
 1346  O   1.88761   1.48107   1.64725   1.56800
 1347  N   1.54314   1.54500   1.19771   1.24105
 1348  H   0.67347
 1349  C   1.09005   0.99999   1.00971   0.91811
 1350  H   0.79880
 1351  C   1.08570   0.92878   0.92519   0.87513
 1352  H   0.85093
 1353  C   1.05841   1.09900   1.12851   1.20374
 1354  H   0.82584
 1355  H   0.83325
 1356  H   0.83124
 1357  O   1.84252   1.58498   1.64221   1.57185
 1358  H   0.62391
 1359  C   1.07905   0.80883   0.78961   0.75869
 1360  O   1.88644   1.54221   1.79507   1.37635
 1361  N   1.55282   1.32712   1.29598   1.37732
 1362  H   0.65173
 1363  C   1.07394   0.98895   0.92719   0.99358
 1364  H   0.81750
 1365  C   1.05777   1.09579   1.06849   1.08651
 1366  H   0.84126
 1367  H   0.82908
 1368  C   1.06158   0.97105   0.97490   1.05610
 1369  C   1.08275   0.97381   1.07994   0.99764
 1370  H   0.84483
 1371  C   1.08372   1.08306   0.99487   1.00816
 1372  H   0.80330
 1373  C   1.06577   0.82547   0.89624   0.91739
 1374  O   1.84121   1.47060   1.54160   1.69683
 1375  H   0.63927
 1376  C   1.07420   0.99030   1.09174   1.06706
 1377  H   0.84670
 1378  C   1.08143   1.06435   0.99888   0.99790
 1379  H   0.85831
 1380  C   1.08191   0.77646   0.73403   0.82097
 1381  O   1.88474   1.39056   1.55619   1.82933
 1382  N   1.55036   1.20064   1.60156   1.14811
 1383  H   0.66066
 1384  C   1.08721   1.11697   1.03481   0.83744
 1385  H   0.82136
 1386  C   1.08254   0.83230   0.89082   1.00020
 1387  H   0.86798
 1388  C   1.05719   1.09869   1.14106   1.18959
 1389  H   0.83129
 1390  H   0.84541
 1391  H   0.84163
 1392  O   1.84703   1.32384   1.76611   1.66695
 1393  H   0.61655
 1394  C   1.08200   0.82816   0.76391   0.79189
 1395  O   1.88731   1.29183   1.70681   1.67706
 1396  N   1.54289   1.22792   1.27103   1.47586
 1397  H   0.64945
 1398  C   1.07065   0.98381   1.04043   1.07606
 1399  H   0.84420
 1400  H   0.80873
 1401  C   1.07027   0.85086   0.72018   0.75162
 1402  O   1.88496   1.70086   1.45758   1.55949
 1403  N   1.55349   1.14729   1.51368   1.33251
 1404  H   0.67983
 1405  C   1.07056   0.82923   0.98706   1.12838
 1406  H   0.81460
 1407  C   1.05334   1.16414   0.99045   1.05290
 1408  H   0.83886
 1409  H   0.83679
 1410  C   1.05975   1.20539   1.01167   1.13808
 1411  H   0.84291
 1412  H   0.82580
 1413  C   1.06676   0.72282   0.72045   0.72774
 1414  O   1.88758   1.47389   1.82368   1.63700
 1415  O   1.88502   1.51742   1.58633   1.81405
 1416  C   1.08679   0.77112   0.86260   0.75466
 1417  O   1.88735   1.64832   1.65287   1.40919
 1418  N   1.54584   1.31037   1.19201   1.47869
 1419  H   0.65330
 1420  C   1.07212   1.06257   0.88117   1.00749
 1421  H   0.84357
 1422  C   1.05448   1.01880   1.03236   0.97110
 1423  H   0.83638
 1424  C   1.05590   1.17741   1.04864   1.19321
 1425  H   0.84537
 1426  H   0.83588
 1427  H   0.83805
 1428  C   1.05455   1.18125   1.16755   1.06133
 1429  H   0.84079
 1430  H   0.83988
 1431  H   0.85193
 1432  C   1.07568   0.77108   0.73157   0.84223
 1433  O   1.88369   1.36379   1.63750   1.76943
 1434  N   1.53826   1.27316   1.47285   1.21105
 1435  H   0.66884
 1436  C   1.07710   1.00702   1.05452   0.86813
 1437  H   0.82257
 1438  C   1.06064   1.02670   1.01610   0.97689
 1439  H   0.84037
 1440  C   1.05418   1.18413   1.09812   1.12139
 1441  H   0.84114
 1442  H   0.84076
 1443  H   0.85074
 1444  C   1.05737   1.18968   1.16660   1.05244
 1445  H   0.84619
 1446  H   0.83554
 1447  H   0.83887
 1448  C   1.08150   0.80677   0.78623   0.75097
 1449  O   1.88312   1.81176   1.47373   1.46041
 1450  N   1.53598   1.23687   1.43133   1.31656
 1451  H   0.66461
 1452  C   1.07959   0.90421   0.96811   1.14833
 1453  H   0.80526
 1454  C   1.07969   0.93541   0.82460   0.98305
 1455  H   0.86684
 1456  C   1.05744   1.09499   1.13571   1.19622
 1457  H   0.82489
 1458  H   0.82219
 1459  H   0.84132
 1460  O   1.84756   1.47785   1.49392   1.78185
 1461  H   0.64865
 1462  C   1.07066   0.75361   0.82649   0.79805
 1463  O   1.88054   1.50732   1.88272   1.36453
 1464  N   1.53714   1.55004   1.12175   1.29443
 1465  H   0.65700
 1466  C   1.05412   1.16774   0.87315   1.13579
 1467  H   0.83021
 1468  H   0.83680
 1469  H   0.85128
 1470  H   0.82734
 1471  C   1.10847   0.72194   0.77570   0.90301
 1472  O   1.87918   1.50025   1.39716   1.89102
 1473  N   1.54806   1.50783   1.35865   1.13687
 1474  H   0.67052
 1475  C   1.07821   1.08308   1.04077   0.80189
 1476  H   0.80369
 1477  C   1.05903   1.13424   0.99961   1.10166
 1478  H   0.81851
 1479  H   0.82212
 1480  C   1.06603   0.97584   0.99259   1.00493
 1481  C   1.08224   0.99074   1.02511   1.00497
 1482  H   0.83752
 1483  C   1.07636   1.10503   1.04959   1.06600
 1484  H   0.82043
 1485  C   1.07251   0.88654   0.88222   0.88002
 1486  O   1.83869   1.35496   1.61293   1.73276
 1487  H   0.61920
 1488  C   1.07860   0.98865   1.09951   1.09647
 1489  H   0.82139
 1490  C   1.08807   1.07851   0.97923   0.96954
 1491  H   0.83521
 1492  C   1.08085   0.79996   0.76892   0.79199
 1493  O   1.88631   1.81386   1.69945   1.28035
 1494  N   1.53472   1.25589   1.50894   1.18458
 1495  H   0.67093
 1496  C   1.06144   0.92031   1.08955   1.16675
 1497  H   0.83440
 1498  H   0.82975
 1499  H   0.83854
 1500  H   0.82497
 1501  C   1.10799   0.78632   0.88385   0.71626
 1502  O   1.88013   1.43036   1.87071   1.50908
 1503  N   1.55064   1.37513   1.18536   1.44526
 1504  H   0.64431
 1505  C   1.07868   0.96571   0.86315   1.12894
 1506  H   0.81510
 1507  C   1.05974   0.97983   0.99670   1.07643
 1508  H   0.84633
 1509  C   1.05205   1.15828   1.06257   1.17600
 1510  H   0.84462
 1511  H   0.84455
 1512  H   0.84169
 1513  C   1.04780   1.00001   1.12973   1.08500
 1514  H   0.86678
 1515  H   0.85349
 1516  C   1.04902   1.11595   1.12957   1.14950
 1517  H   0.85870
 1518  H   0.85754
 1519  H   0.84104
 1520  C   1.07238   0.85962   0.73794   0.75019
 1521  O   1.87626   1.57616   1.55613   1.67373
 1522  N   1.54215   1.18494   1.41746   1.37456
 1523  H   0.66205
 1524  C   1.07135   0.87894   1.16322   1.10821
 1525  H   0.84318
 1526  H   0.83230
 1527  H   0.83427
 1528  H   0.82795
 1529  C   1.10749   0.84815   0.73330   0.82105
 1530  O   1.88537   1.81617   1.62614   1.36638
 1531  N   1.53779   1.25354   1.40319   1.30535
 1532  H   0.64795
 1533  C   1.05919   0.89150   1.04076   1.02442
 1534  H   0.81857
 1535  C   1.06067   1.03231   1.11493   1.11473
 1536  H   0.82488
 1537  H   0.84731
 1538  C   1.04442   0.99011   0.96301   1.05975
 1539  H   0.88087
 1540  C   1.05456   1.16280   1.06828   1.18096
 1541  H   0.83872
 1542  H   0.84779
 1543  H   0.85332
 1544  C   1.05255   1.12336   1.17310   1.10774
 1545  H   0.85711
 1546  H   0.84680
 1547  H   0.84148
 1548  C   1.07869   0.72904   0.86475   0.77475
 1549  O   1.88184   1.57584   1.45156   1.73533
 1550  N   1.54014   1.57322   1.21273   1.19378
 1551  H   0.66021
 1552  C   1.07183   1.01849   0.93527   0.96171
 1553  H   0.81149
 1554  C   1.05668   1.17073   1.07938   0.99172
 1555  H   0.82407
 1556  H   0.82659
 1557  C   1.05683   1.13002   1.08788   1.03625
 1558  H   0.85326
 1559  H   0.82395
 1560  C   1.06363   1.15820   0.94498   0.90198
 1561  H   0.81620
 1562  H   0.83556
 1563  N   1.52414   1.16143   1.42466   1.39820
 1564  H   0.63968
 1565  C   0.99141   0.79131   0.81238   0.81843
 1566  N   1.51720   1.11645   1.46806   1.48665
 1567  H   0.65575
 1568  H   0.63930
 1569  N   1.50866   1.25119   1.39994   1.41134
 1570  H   0.64196
 1571  H   0.64052
 1572  C   1.08178   0.87186   0.77051   0.74309
 1573  O   1.88704   1.61055   1.60185   1.53123
 1574  N   1.53966   1.17471   1.27109   1.51435
 1575  H   0.65644
 1576  C   1.07442   0.85643   1.08622   1.03935
 1577  H   0.82281
 1578  C   1.06144   1.16429   1.09873   0.98386
 1579  H   0.84165
 1580  H   0.83864
 1581  C   1.04760   1.08143   0.95991   0.94853
 1582  H   0.86919
 1583  C   1.05588   1.17121   1.16321   1.07749
 1584  H   0.85443
 1585  H   0.86065
 1586  H   0.84680
 1587  C   1.05677   1.15739   1.09248   1.15842
 1588  H   0.85121
 1589  H   0.86010
 1590  H   0.84631
 1591  C   1.08276   0.71500   0.76191   0.70268
 1592  O   1.88397   1.46790   1.86997   1.62381
 1593  O   1.88775   1.54621   1.59305   1.80210

 **********************
 *                    *
 * JOB ENDED NORMALLY *
 *                    *
 **********************



 TOTAL JOB TIME:            39.35 SECONDS

 == MOPAC DONE ==
