 *******************************************************************************
 **                                                                           **
 **                              MOPAC v23.2.2                                **
 **                                                                           **
 *******************************************************************************
 **          Digital Object Identifier (DOI): 10.5281/zenodo.6511958          **
 **    Visit the DOI location for information on how to cite this program.    **
 *******************************************************************************

                              PM7 CALCULATION RESULTS

 *******************************************************************************
 *  CALCULATION DONE: (MAX THREADS = 12)             Tue Jan 27 16:13:22 2026  *
 *  PM7        - The PM7 Hamiltonian to be used
 *  MOZYME     - USE LOCALIZED M.O.s IN SOLVING THE SCF EQUATIONS
 *
 *
 *
 *                 CHARGE ON SYSTEM = +2
 *
 *
 *
 *  EPS=78.4   - USE ANDREAS KLAMT'S COSMO IMPLICIT SOLVATION MODEL
 *  1SCF       - DO 1 SCF AND THEN STOP 
 *  T=         - A TIME OF 172800.0 SECONDS REQUESTED
 *  DUMP=N     - RESTART FILE WRITTEN EVERY 7200.0 SECONDS REQUESTED
 *******************************************************************************
PM7 1SCF MOZYME CHARGE=2 EPS=78.4


   ATOM   CHEMICAL          X               Y               Z
  NUMBER   SYMBOL      (ANGSTROMS)     (ANGSTROMS)     (ANGSTROMS)

     1       H         71.69100000  *  165.23700000  * -45.36000000  *
     2       C         70.72700000  *  165.64400000  * -45.02500000  *
     3       O         70.67100000  *  166.69300000  * -44.40000000  *
     4       N         69.64800000  *  164.94600000  * -45.35400000  *
     5       H         69.74300000  *  164.08600000  * -45.86500000  *
     6       C         68.31800000  *  165.37700000  * -44.95100000  *
     7       H         68.30400000  *  166.44500000  * -44.75000000  *
     8       C         67.27900000  *  165.08100000  * -46.05800000  *
     9       H         67.27200000  *  164.02200000  * -46.29800000  *
    10       C         65.89200000  *  165.46600000  * -45.59200000  *
    11       H         65.46400000  *  166.22900000  * -46.24500000  *
    12       H         65.23700000  *  164.60600000  * -45.62700000  *
    13       H         65.87600000  *  165.89500000  * -44.58400000  *
    14       C         67.63700000  *  165.85600000  * -47.31700000  *
    15       H         68.59400000  *  165.52900000  * -47.70800000  *
    16       H         66.87900000  *  165.66900000  * -48.07700000  *
    17       H         67.68800000  *  166.92100000  * -47.10100000  *
    18       C         67.91500000  *  164.66400000  * -43.65700000  *
    19       O         67.55300000  *  165.30600000  * -42.67600000  *
    20       N         67.98400000  *  163.33800000  * -43.65800000  *
    21       H         68.28400000  *  162.85200000  * -44.48600000  *
    22       C         67.62300000  *  162.54400000  * -42.48700000  *
    23       H         67.90600000  *  163.07600000  * -41.58100000  *
    24       C         66.12800000  *  162.23500000  * -42.45900000  *
    25       H         65.92600000  *  161.47400000  * -43.20900000  *
    26       H         65.88500000  *  161.80700000  * -41.48800000  *
    27       C         65.21300000  *  163.39800000  * -42.74000000  *
    28       H         65.33100000  *  164.15700000  * -41.96400000  *
    29       H         65.45900000  *  163.81400000  * -43.69700000  *
    30       C         63.76600000  *  162.97200000  * -42.82400000  *
    31       O         63.44700000  *  162.11400000  * -43.67900000  *
    32       O         62.94800000  *  163.49400000  * -42.03400000  *
    33       C         68.34700000  *  161.22200000  * -42.57700000  *
    34       O         68.73000000  *  160.78800000  * -43.66100000  *
    35       N         68.52400000  *  160.57500000  * -41.43500000  *
    36       H         68.03000000  *  160.89100000  * -40.60600000  *
    37       C         69.17300000  *  159.28200000  * -41.42100000  *
    38       H         69.95100000  *  159.22100000  * -42.17800000  *
    39       C         69.75600000  *  159.01000000  * -40.03200000  *
    40       H         70.21900000  *  159.94300000  * -39.71800000  *
    41       H         68.96300000  *  158.79100000  * -39.31600000  *
    42       C         70.79800000  *  157.89600000  * -39.98300000  *
    43       H         70.31100000  *  156.94100000  * -40.17400000  *
    44       H         71.53800000  *  158.07300000  * -40.76900000  *
    45       C         71.50100000  *  157.83200000  * -38.61800000  *
    46       H         70.74900000  *  157.59000000  * -37.86000000  *
    47       H         72.23100000  *  157.01800000  * -38.63800000  *
    48       C         72.18600000  *  159.16200000  * -38.26900000  *
    49       H         72.83200000  *  159.42500000  * -39.10900000  *
    50       H         71.41200000  *  159.93100000  * -38.15600000  *
    51       N         73.00000000  *  159.10500000  * -37.02500000  *
    52       H         73.70000000  *  158.37000000  * -37.07400000  *
    53       H         73.43800000  *  159.98800000  * -36.79300000  *
    54       H         72.39100000  *  158.85400000  * -36.25100000  *
    55       C         68.06200000  *  158.28700000  * -41.74800000  *
    56       O         67.16300000  *  158.08100000  * -40.94600000  *
    57       N         68.04700000  *  157.72300000  * -42.96000000  *
    58       H         68.84900000  *  157.87100000  * -43.55200000  *
    59       C         67.03600000  *  156.73100000  * -43.38200000  *
    60       H         66.05200000  *  157.20400000  * -43.35900000  *
    61       C         67.29100000  *  156.23000000  * -44.82400000  *
    62       H         68.36300000  *  156.08800000  * -44.95900000  *
    63       C         66.59100000  *  154.89300000  * -45.11600000  *
    64       H         65.52700000  *  154.97300000  * -44.89200000  *
    65       H         66.71100000  *  154.63800000  * -46.16000000  *
    66       H         67.03000000  *  154.08100000  * -44.53700000  *
    67       C         66.79800000  *  157.28600000  * -45.82500000  *
    68       H         65.70700000  *  157.30300000  * -45.83400000  *
    69       H         67.13900000  *  158.25200000  * -45.47000000  *
    70       C         67.31100000  *  157.08600000  * -47.25900000  *
    71       H         66.88100000  *  156.19300000  * -47.70500000  *
    72       H         67.02600000  *  157.93900000  * -47.87100000  *
    73       H         68.39500000  *  157.00300000  * -47.26300000  *
    74       C         66.97600000  *  155.56200000  * -42.40000000  *
    75       O         65.89800000  *  155.18700000  * -41.93600000  *
    76       N         68.13500000  *  154.97000000  * -42.11300000  *
    77       H         68.99700000  *  155.34200000  * -42.49800000  *
    78       C         68.20000000  *  153.74500000  * -41.33700000  *
    79       H         67.75900000  *  153.92300000  * -40.35600000  *
    80       H         67.61700000  *  152.97300000  * -41.84200000  *
    81       C         69.60900000  *  153.21400000  * -41.13200000  *
    82       O         70.60900000  *  153.74800000  * -41.61900000  *
    83       N         69.65000000  *  152.13300000  * -40.37000000  *
    84       H         68.76800000  *  151.74700000  * -40.06300000  *
    85       C         70.85200000  *  151.54700000  * -39.79800000  *
    86       H         71.70400000  *  152.21000000  * -39.95700000  *
    87       C         70.62600000  *  151.41500000  * -38.28200000  *
    88       H         69.79700000  *  150.73300000  * -38.09100000  *
    89       H         71.53200000  *  151.01100000  * -37.85200000  *
    90       C         70.33800000  *  152.77000000  * -37.60600000  *
    91       H         71.14300000  *  153.46600000  * -37.85600000  *
    92       H         69.40900000  *  153.18900000  * -38.00000000  *
    93       C         70.20600000  *  152.64900000  * -36.08000000  *
    94       O         69.29300000  *  151.94100000  * -35.59800000  *
    95       O         70.97700000  *  153.31500000  * -35.35100000  *
    96       C         71.13400000  *  150.21800000  * -40.51600000  *
    97       O         70.50800000  *  149.19300000  * -40.23200000  *
    98       N         71.97200000  *  150.27300000  * -41.55600000  *
    99       H         72.52900000  *  151.10800000  * -41.69000000  *
   100       C         72.06000000  *  149.23600000  * -42.59000000  *
   101       H         71.05700000  *  148.86500000  * -42.80800000  *
   102       H         72.44400000  *  149.69600000  * -43.50000000  *
   103       C         72.94700000  *  148.03400000  * -42.25200000  *
   104       O         73.48800000  *  147.90200000  * -41.15600000  *
   105       N         73.13700000  *  147.16300000  * -43.24600000  *
   106       H         72.64800000  *  147.32100000  * -44.11700000  *
   107       C         73.97700000  *  145.94500000  * -43.18500000  *
   108       H         73.70000000  *  145.36600000  * -42.30400000  *
   109       C         73.73200000  *  145.07200000  * -44.42800000  *
   110       H         74.48100000  *  144.28000000  * -44.48100000  *
   111       C         72.35100000  *  144.42800000  * -44.39900000  *
   112       H         71.57200000  *  145.18900000  * -44.43200000  *
   113       H         72.24800000  *  143.76300000  * -45.25700000  *
   114       H         72.25600000  *  143.83200000  * -43.49200000  *
   115       O         73.81900000  *  145.87900000  * -45.57700000  *
   116       H         73.30200000  *  145.45400000  * -46.29900000  *
   117       C         75.48300000  *  146.21200000  * -43.08700000  *
   118       O         76.19500000  *  145.37500000  * -42.53600000  *
   119       N         75.95700000  *  147.36400000  * -43.58200000  *
   120       H         75.29300000  *  147.94100000  * -44.07100000  *
   121       C         77.38500000  *  147.72100000  * -43.69200000  *
   122       H         77.97800000  *  147.06000000  * -43.05700000  *
   123       C         77.84500000  *  147.52600000  * -45.14800000  *
   124       H         77.25600000  *  148.17800000  * -45.79200000  *
   125       H         78.88800000  *  147.83100000  * -45.23900000  *
   126       C         77.76500000  *  146.11000000  * -45.66100000  *
   127       C         78.68300000  *  145.15600000  * -45.19000000  *
   128       H         79.44400000  *  145.44000000  * -44.47400000  *
   129       C         78.60300000  *  143.83000000  * -45.64000000  *
   130       H         79.30500000  *  143.10200000  * -45.26600000  *
   131       C         77.60100000  *  143.45900000  * -46.56400000  *
   132       O         77.49000000  *  142.16900000  * -46.95800000  *
   133       H         77.90500000  *  141.59200000  * -46.28900000  *
   134       C         76.69600000  *  144.42100000  * -47.05100000  *
   135       H         75.92000000  *  144.13400000  * -47.74200000  *
   136       C         76.78500000  *  145.74900000  * -46.60500000  *
   137       H         76.08200000  *  146.48500000  * -46.96700000  *
   138       C         77.72800000  *  149.16000000  * -43.26900000  *
   139       O         78.87800000  *  149.56800000  * -43.41200000  *
   140       N         76.77100000  *  149.95300000  * -42.77900000  *
   141       H         75.85100000  *  149.57700000  * -42.60000000  *
   142       C         76.98500000  *  151.37100000  * -42.47100000  *
   143       H         77.53300000  *  151.46200000  * -41.53600000  *
   144       H         77.59500000  *  151.81200000  * -43.25000000  *
   145       C         75.68300000  *  152.16200000  * -42.35000000  *
   146       O         74.61500000  *  151.56900000  * -42.16800000  *
   147       N         75.75500000  *  153.49500000  * -42.44900000  *
   148       H         76.58800000  *  153.89400000  * -42.85900000  *
   149       C         74.59200000  *  154.32600000  * -42.21200000  *
   150       H         73.82600000  *  153.78000000  * -41.65800000  *
   151       C         74.95900000  *  155.54800000  * -41.37000000  *
   152       H         75.70700000  *  156.13900000  * -41.89300000  *
   153       C         73.73100000  *  156.40900000  * -41.13300000  *
   154       H         72.94300000  *  155.80300000  * -40.68200000  *
   155       H         73.98600000  *  157.21200000  * -40.45000000  *
   156       H         73.36800000  *  156.84900000  * -42.06500000  *
   157       C         75.54500000  *  155.09600000  * -40.05300000  *
   158       H         76.46000000  *  154.52800000  * -40.19800000  *
   159       H         75.77700000  *  155.95300000  * -39.42300000  *
   160       H         74.80500000  *  154.48400000  * -39.53200000  *
   161       C         74.01900000  *  154.79200000  * -43.53700000  *
   162       O         74.76100000  *  155.18400000  * -44.43700000  *
   163       N         72.69700000  *  154.65100000  * -43.67700000  *
   164       H         72.16600000  *  154.31700000  * -42.87800000  *
   165       C         71.91700000  *  155.10100000  * -44.83600000  *
   166       H         72.57700000  *  155.16300000  * -45.69900000  *
   167       C         70.77000000  *  154.12600000  * -45.18200000  *
   168       H         69.94600000  *  154.26900000  * -44.48300000  *
   169       C         70.25900000  *  154.40900000  * -46.60000000  *
   170       H         71.04200000  *  154.21000000  * -47.33200000  *
   171       H         69.40100000  *  153.77200000  * -46.81700000  *
   172       H         69.95200000  *  155.44800000  * -46.69300000  *
   173       C         71.18400000  *  152.65300000  * -45.10300000  *
   174       H         72.08400000  *  152.49800000  * -45.69000000  *
   175       H         71.37300000  *  152.37400000  * -44.06500000  *
   176       H         70.38100000  *  152.01900000  * -45.48400000  *
   177       C         71.34500000  *  156.48500000  * -44.54400000  *
   178       O         70.60300000  *  156.63200000  * -43.57000000  *
   179       N         71.62500000  *  157.49000000  * -45.37400000  *
   180       H         72.23900000  *  157.32200000  * -46.16900000  *
   181       C         71.01800000  *  158.79600000  * -45.21900000  *
   182       H         70.37900000  *  158.84300000  * -44.33800000  *
   183       C         72.10000000  *  159.86100000  * -45.06900000  *
   184       H         72.79900000  *  159.78100000  * -45.90500000  *
   185       H         71.63400000  *  160.84400000  * -45.14300000  *
   186       C         72.87100000  *  159.84300000  * -43.76800000  *
   187       C         72.34700000  *  160.43100000  * -42.61900000  *
   188       H         71.37700000  *  160.90600000  * -42.66800000  *
   189       C         73.06400000  *  160.45200000  * -41.42500000  *
   190       H         72.63300000  *  160.94600000  * -40.56800000  *
   191       C         74.33000000  *  159.87400000  * -41.37100000  *
   192       O         75.04700000  *  159.90100000  * -40.18700000  *
   193       H         74.69700000  *  160.54100000  * -39.56800000  *
   194       C         74.87500000  *  159.27800000  * -42.50300000  *
   195       H         75.78500000  *  158.71900000  * -42.41900000  *
   196       C         74.14000000  *  159.26700000  * -43.69600000  *
   197       H         74.51800000  *  158.73300000  * -44.56500000  *
   198       C         70.16700000  *  159.17400000  * -46.42900000  *
   199       O         70.41800000  *  158.72400000  * -47.55600000  *
   200       N         69.03100000  *  159.83600000  * -46.21200000  *
   201       H         68.84400000  *  160.14300000  * -45.26400000  *
   202       C         68.29500000  *  160.51300000  * -47.28100000  *
   203       H         68.28500000  *  159.91100000  * -48.19100000  *
   204       C         66.85100000  *  160.84200000  * -46.84700000  *
   205       H         66.33300000  *  159.92400000  * -46.58200000  *
   206       H         66.87000000  *  161.48500000  * -45.96600000  *
   207       C         66.04100000  *  161.52200000  * -47.96200000  *
   208       H         66.51400000  *  162.46500000  * -48.24100000  *
   209       H         66.01600000  *  160.86800000  * -48.83500000  *
   210       C         64.60600000  *  161.80000000  * -47.48800000  *
   211       H         64.14800000  *  160.86700000  * -47.15400000  *
   212       H         64.63700000  *  162.49400000  * -46.64700000  *
   213       C         63.76400000  *  162.39900000  * -48.62300000  *
   214       H         64.28500000  *  163.27600000  * -49.02100000  *
   215       H         63.69000000  *  161.65600000  * -49.42600000  *
   216       N         62.40600000  *  162.78800000  * -48.15900000  *
   217       H         62.45100000  *  163.49500000  * -47.43900000  *
   218       H         61.85500000  *  163.17100000  * -48.91600000  *
   219       H         61.90000000  *  161.99900000  * -47.78100000  *
   220       C         69.10300000  *  161.76700000  * -47.50900000  *
   221       O         69.33500000  *  162.50000000  * -46.55200000  *
   222       N         69.55500000  *  162.00600000  * -48.72500000  *
   223       H         69.34400000  *  161.34200000  * -49.46700000  *
   224       C         70.34900000  *  163.18200000  * -49.01700000  *
   225       H         70.22500000  *  163.93500000  * -48.24000000  *
   226       C         71.81400000  *  162.79200000  * -49.07000000  *
   227       H         71.97800000  *  162.06700000  * -49.86400000  *
   228       H         72.42900000  *  163.67700000  * -49.23900000  *
   229       H         72.10500000  *  162.33200000  * -48.12600000  *
   230       C         69.94400000  *  163.83800000  * -50.32200000  *
   231       O         69.22100000  *  163.25100000  * -51.12800000  *
   232       N         70.40700000  *  165.06400000  * -50.52400000  *
   233       H         70.93200000  *  165.53000000  * -49.79600000  *
   234       C         70.10800000  *  165.77900000  * -51.74600000  *
   235       H         69.54100000  *  165.15900000  * -52.44400000  *
   236       H         69.52200000  *  166.69100000  * -51.53000000  *
   237       H         71.05900000  *  166.04700000  * -52.23900000  *
   238       H         68.08600000  *  164.80700000  * -56.55000000  *
   239       C         68.21200000  *  164.39600000  * -55.53600000  *
   240       O         69.28600000  *  164.50800000  * -54.94200000  *
   241       N         67.13500000  *  163.82300000  * -55.01100000  *
   242       H         66.34000000  *  163.66800000  * -55.61500000  *
   243       C         67.13600000  *  163.21200000  * -53.68800000  *
   244       H         67.86300000  *  163.70700000  * -53.05000000  *
   245       C         65.75500000  *  163.32300000  * -53.02900000  *
   246       H         64.97700000  *  163.06900000  * -53.75000000  *
   247       C         65.64800000  *  162.36600000  * -51.85200000  *
   248       H         66.47200000  *  162.51800000  * -51.15200000  *
   249       H         64.69700000  *  162.53800000  * -51.34700000  *
   250       H         65.65200000  *  161.33900000  * -52.20000000  *
   251       C         65.54000000  *  164.75000000  * -52.56600000  *
   252       H         65.62600000  *  165.42400000  * -53.41600000  *
   253       H         64.53500000  *  164.85100000  * -52.15900000  *
   254       H         66.28400000  *  165.00300000  * -51.81000000  *
   255       C         67.52600000  *  161.76000000  * -53.84700000  *
   256       O         66.97900000  *  161.02800000  * -54.68200000  *
   257       N         68.49600000  *  161.34900000  * -53.04800000  *
   258       H         68.91100000  *  161.99700000  * -52.39100000  *
   259       C         69.01100000  *  159.99200000  * -53.10200000  *
   260       H         68.34600000  *  159.34100000  * -53.67900000  *
   261       C         70.37400000  *  159.97400000  * -53.81600000  *
   262       H         70.77500000  *  158.96500000  * -53.87500000  *
   263       C         70.21400000  *  160.50700000  * -55.21300000  *
   264       H         69.95700000  *  161.56600000  * -55.19000000  *
   265       H         71.15100000  *  160.39100000  * -55.75600000  *
   266       H         69.44200000  *  159.95000000  * -55.73600000  *
   267       C         71.37900000  *  160.85000000  * -53.05700000  *
   268       H         71.56500000  *  160.44500000  * -52.06400000  *
   269       H         72.31500000  *  160.84900000  * -53.61300000  *
   270       H         71.03600000  *  161.88400000  * -52.98400000  *
   271       C         69.19200000  *  159.37200000  * -51.72900000  *
   272       O         69.02000000  *  160.03600000  * -50.68600000  *
   273       N         69.38300000  *  158.05900000  * -51.70500000  *
   274       H         69.46100000  *  157.56600000  * -52.59000000  *
   275       C         69.76200000  *  157.32500000  * -50.51400000  *
   276       H         69.48100000  *  157.88600000  * -49.62500000  *
   277       C         69.01200000  *  156.00300000  * -50.47900000  *
   278       H         69.25300000  *  155.42900000  * -51.37100000  *
   279       H         69.29900000  *  155.43600000  * -49.59300000  *
   280       H         67.94100000  *  156.20000000  * -50.44700000  *
   281       C         71.27900000  *  157.14600000  * -50.54200000  *
   282       O         71.81400000  *  156.47200000  * -51.42800000  *
   283       N         71.97000000  *  157.79100000  * -49.60300000  *
   284       H         71.44500000  *  158.28300000  * -48.88900000  *
   285       C         73.41300000  *  157.73400000  * -49.53500000  *
   286       H         73.80300000  *  157.43200000  * -50.50200000  *
   287       C         73.96100000  *  159.11400000  * -49.18200000  *
   288       H         73.49200000  *  159.84000000  * -49.85100000  *
   289       H         73.62800000  *  159.35800000  * -48.16900000  *
   290       C         75.47300000  *  159.31600000  * -49.26600000  *
   291       H         75.96900000  *  158.63700000  * -48.57100000  *
   292       C         75.94900000  *  159.02000000  * -50.68400000  *
   293       H         75.44100000  *  159.71800000  * -51.34800000  *
   294       H         77.02400000  *  159.18800000  * -50.76300000  *
   295       H         75.74700000  *  157.98700000  * -50.96800000  *
   296       C         75.80400000  *  160.74000000  * -48.87900000  *
   297       H         75.43700000  *  160.94600000  * -47.87600000  *
   298       H         76.88200000  *  160.87900000  * -48.92200000  *
   299       H         75.32000000  *  161.42900000  * -49.57600000  *
   300       C         73.82100000  *  156.71600000  * -48.48500000  *
   301       O         73.39600000  *  156.78100000  * -47.33400000  *
   302       N         74.64100000  *  155.74900000  * -48.88700000  *
   303       H         74.87900000  *  155.72700000  * -49.87700000  *
   304       C         75.13400000  *  154.63700000  * -48.06200000  *
   305       H         74.61500000  *  154.61700000  * -47.10200000  *
   306       C         74.85900000  *  153.32600000  * -48.83400000  *
   307       H         74.41500000  *  153.56600000  * -49.80200000  *
   308       H         75.79400000  *  152.80000000  * -49.03800000  *
   309       C         73.89700000  *  152.35100000  * -48.15600000  *
   310       H         73.02500000  *  152.89300000  * -47.78900000  *
   311       H         73.55800000  *  151.66000000  * -48.92600000  *
   312       C         74.56200000  *  151.56200000  * -47.01300000  *
   313       H         75.57000000  *  151.25900000  * -47.30200000  *
   314       H         74.64700000  *  152.21200000  * -46.13800000  *
   315       C         73.75100000  *  150.30700000  * -46.64000000  *
   316       H         74.17400000  *  149.88700000  * -45.72200000  *
   317       H         72.72000000  *  150.60600000  * -46.42000000  *
   318       N         73.76800000  *  149.28400000  * -47.72700000  *
   319       H         74.70200000  *  148.94200000  * -47.91900000  *
   320       H         73.18200000  *  148.47100000  * -47.49500000  *
   321       H         73.38500000  *  149.65500000  * -48.58800000  *
   322       C         76.62400000  *  154.84800000  * -47.79800000  *
   323       O         77.41700000  *  154.68100000  * -48.71600000  *
   324       N         77.01700000  *  155.22600000  * -46.58100000  *
   325       H         76.29800000  *  155.26800000  * -45.86500000  *
   326       C         78.42200000  *  155.28900000  * -46.15900000  *
   327       H         79.06600000  *  155.59300000  * -46.98900000  *
   328       C         78.56700000  *  156.26000000  * -44.97900000  *
   329       H         78.02700000  *  155.87500000  * -44.10900000  *
   330       H         79.62500000  *  156.33900000  * -44.73000000  *
   331       C         78.01500000  *  157.64300000  * -45.34000000  *
   332       H         78.45100000  *  157.95800000  * -46.27300000  *
   333       H         76.93600000  *  157.57500000  * -45.50000000  *
   334       C         78.25100000  *  158.72500000  * -44.27900000  *
   335       H         77.97800000  *  159.68000000  * -44.73200000  *
   336       H         77.56000000  *  158.53300000  * -43.46900000  *
   337       C         79.67700000  *  158.85000000  * -43.70900000  *
   338       H         80.38400000  *  158.36300000  * -44.39700000  *
   339       H         79.95000000  *  159.91100000  * -43.68600000  *
   340       N         79.78800000  *  158.26900000  * -42.33500000  *
   341       H         79.63700000  *  157.26100000  * -42.37000000  *
   342       H         80.69600000  *  158.42600000  * -41.93200000  *
   343       H         79.10400000  *  158.64600000  * -41.70100000  *
   344       C         78.82300000  *  153.89100000  * -45.72900000  *
   345       O         78.09100000  *  153.31500000  * -44.93700000  *
   346       N         79.90700000  *  153.32000000  * -46.24700000  *
   347       H         80.40500000  *  153.76400000  * -47.01000000  *
   348       C         80.34300000  *  152.02200000  * -45.76800000  *
   349       H         79.49500000  *  151.49800000  * -45.35900000  *
   350       C         80.94400000  *  151.18600000  * -46.89500000  *
   351       H         81.78600000  *  151.78200000  * -47.16900000  *
   352       C         81.42400000  *  149.85200000  * -46.34500000  *
   353       H         80.65600000  *  149.35200000  * -45.75200000  *
   354       H         81.67900000  *  149.19900000  * -47.17900000  *
   355       H         82.34500000  *  149.95700000  * -45.76100000  *
   356       C         79.89700000  *  150.97600000  * -47.99700000  *
   357       H         79.60200000  *  151.87000000  * -48.50000000  *
   358       H         80.28300000  *  150.30500000  * -48.75000000  *
   359       C         78.59100000  *  150.36100000  * -47.52600000  *
   360       H         78.17700000  *  150.90100000  * -46.69000000  *
   361       H         77.89400000  *  150.33700000  * -48.36300000  *
   362       H         78.77100000  *  149.33300000  * -47.20900000  *
   363       C         81.33300000  *  152.07100000  * -44.61400000  *
   364       O         82.16700000  *  152.98000000  * -44.51900000  *
   365       N         81.21100000  *  151.07100000  * -43.74300000  *
   366       H         80.50300000  *  150.36100000  * -43.92800000  *
   367       C         82.04400000  *  150.90200000  * -42.55200000  *
   368       H         81.47500000  *  151.18100000  * -41.66300000  *
   369       H         82.35800000  *  149.86100000  * -42.45900000  *
   370       H         82.94700000  *  151.51400000  * -42.62000000  *
   371       H         81.25700000  *  144.04600000  * -57.89900000  *
   372       C         80.50000000  *  144.84100000  * -57.88800000  *
   373       O         79.71500000  *  144.99000000  * -58.82400000  *
   374       N         80.49900000  *  145.60300000  * -56.79700000  *
   375       H         81.28000000  *  145.52500000  * -56.16600000  *
   376       C         79.57000000  *  146.70600000  * -56.61200000  *
   377       H         78.57500000  *  146.34400000  * -56.42300000  *
   378       C         80.00500000  *  147.61000000  * -55.44200000  *
   379       H         80.89800000  *  148.18000000  * -55.68500000  *
   380       C         78.90600000  *  148.60800000  * -55.12500000  *
   381       H         77.92000000  *  148.14100000  * -55.17600000  *
   382       H         79.04500000  *  148.98700000  * -54.11600000  *
   383       H         78.93800000  *  149.43600000  * -55.83300000  *
   384       C         80.32100000  *  146.76200000  * -54.20900000  *
   385       H         81.19200000  *  146.13400000  * -54.40600000  *
   386       H         80.59400000  *  147.42200000  * -53.38900000  *
   387       C         79.18400000  *  145.87900000  * -53.76500000  *
   388       H         78.77800000  *  145.31100000  * -54.59400000  *
   389       H         79.50900000  *  145.12200000  * -53.06500000  *
   390       H         78.38800000  *  146.48300000  * -53.33500000  *
   391       C         79.54300000  *  147.54500000  * -57.87900000  *
   392       O         78.48200000  *  147.77900000  * -58.45100000  *
   393       N         80.72300000  *  147.98900000  * -58.30900000  *
   394       H         81.55800000  *  147.70100000  * -57.81200000  *
   395       C         80.85900000  *  148.80400000  * -59.51100000  *
   396       H         80.33900000  *  149.74600000  * -59.38600000  *
   397       H         81.92800000  *  148.98500000  * -59.72900000  *
   398       H         80.37800000  *  148.32200000  * -60.38100000  *
   399       H         78.96400000  *  146.08700000  * -61.65600000  *
   400       C         77.87300000  *  146.08700000  * -61.51600000  *
   401       O         77.11500000  *  145.89500000  * -62.46400000  *
   402       N         77.44600000  *  146.31800000  * -60.28000000  *
   403       H         78.13400000  *  146.42500000  * -59.54900000  *
   404       C         76.02800000  *  146.35200000  * -59.94500000  *
   405       H         75.53300000  *  145.47600000  * -60.35900000  *
   406       C         75.84100000  *  146.37400000  * -58.43100000  *
   407       H         76.20500000  *  147.30400000  * -58.01800000  *
   408       H         74.76300000  *  146.35700000  * -58.24200000  *
   409       C         76.47200000  *  145.22200000  * -57.65900000  *
   410       H         77.55000000  *  145.23900000  * -57.74900000  *
   411       C         76.08000000  *  145.34100000  * -56.19200000  *
   412       H         74.99900000  *  145.23000000  * -56.07700000  *
   413       H         76.57300000  *  144.55300000  * -55.62900000  *
   414       H         76.38500000  *  146.30900000  * -55.80100000  *
   415       C         75.99600000  *  143.89000000  * -58.23600000  *
   416       H         76.41500000  *  143.73000000  * -59.22900000  *
   417       H         76.32800000  *  143.07800000  * -57.59100000  *
   418       H         74.90500000  *  143.87400000  * -58.30500000  *
   419       C         75.32200000  *  147.55900000  * -60.54800000  *
   420       O         74.09500000  *  147.56800000  * -60.66200000  *
   421       N         76.08400000  *  148.63100000  * -60.82900000  *
   422       H         77.08200000  *  148.53500000  * -60.67700000  *
   423       C         75.60100000  *  149.83300000  * -61.53400000  *
   424       H         74.83700000  *  150.33500000  * -60.94100000  *
   425       H         76.43800000  *  150.53300000  * -61.75900000  *
   426       H         75.13800000  *  149.54900000  * -62.49200000  *
   427       H         62.79000000  *  145.77200000  * -59.27600000  *
   428       C         63.71000000  *  145.72000000  * -58.67500000  *
   429       O         63.77900000  *  145.02200000  * -57.66400000  *
   430       N         64.72400000  *  146.45200000  * -59.11400000  *
   431       H         64.63800000  *  147.05100000  * -59.92700000  *
   432       C         65.97100000  *  146.53500000  * -58.38100000  *
   433       H         65.88400000  *  146.09200000  * -57.38600000  *
   434       C         67.11600000  *  145.87700000  * -59.11400000  *
   435       H         67.33600000  *  146.42600000  * -60.03000000  *
   436       C         68.35100000  *  145.87800000  * -58.21400000  *
   437       H         68.14700000  *  145.31400000  * -57.31800000  *
   438       H         69.21000000  *  145.44500000  * -58.72400000  *
   439       H         68.64100000  *  146.89000000  * -57.94500000  *
   440       C         66.72800000  *  144.44400000  * -59.47800000  *
   441       H         66.54900000  *  143.87300000  * -58.56400000  *
   442       H         65.81500000  *  144.42400000  * -60.06800000  *
   443       C         67.77400000  *  143.72700000  * -60.29600000  *
   444       H         68.68300000  *  143.57700000  * -59.72200000  *
   445       H         67.37700000  *  142.75300000  * -60.59800000  *
   446       H         68.02300000  *  144.31300000  * -61.18000000  *
   447       C         66.29500000  *  148.01000000  * -58.22000000  *
   448       O         66.21200000  *  148.78000000  * -59.18400000  *
   449       N         66.55100000  *  148.43900000  * -56.98300000  *
   450       H         66.62000000  *  147.75800000  * -56.23100000  *
   451       C         66.88900000  *  149.83500000  * -56.68800000  *
   452       H         66.07400000  *  150.47900000  * -57.02100000  *
   453       C         67.08700000  *  150.04500000  * -55.18300000  *
   454       H         67.87600000  *  149.38200000  * -54.82500000  *
   455       C         67.46800000  *  151.48700000  * -54.84100000  *
   456       H         66.64600000  *  152.16500000  * -55.06600000  *
   457       H         67.70200000  *  151.53700000  * -53.78100000  *
   458       H         68.34800000  *  151.80100000  * -55.39700000  *
   459       C         65.79500000  *  149.73100000  * -54.42500000  *
   460       H         65.53200000  *  148.68200000  * -54.52400000  *
   461       H         65.95100000  *  149.94200000  * -53.37500000  *
   462       H         64.98100000  *  150.34400000  * -54.80500000  *
   463       C         68.15100000  *  150.21300000  * -57.45700000  *
   464       O         69.17900000  *  149.54100000  * -57.33500000  *
   465       N         68.08000000  *  151.28300000  * -58.25100000  *
   466       H         67.22500000  *  151.80400000  * -58.24500000  *
   467       C         69.18900000  *  151.69800000  * -59.08000000  *
   468       H         69.52500000  *  150.81900000  * -59.63900000  *
   469       C         68.73700000  *  152.76800000  * -60.08300000  *
   470       H         67.83400000  *  152.41100000  * -60.57900000  *
   471       H         68.47700000  *  153.68100000  * -59.53700000  *
   472       C         69.79100000  *  153.06900000  * -61.13100000  *
   473       H         70.72100000  *  153.35000000  * -60.64200000  *
   474       H         69.97400000  *  152.16800000  * -61.71600000  *
   475       C         69.35100000  *  154.17900000  * -62.08100000  *
   476       H         68.50200000  *  153.81400000  * -62.66100000  *
   477       H         69.02300000  *  155.05600000  * -61.52200000  *
   478       C         70.49800000  *  154.55900000  * -63.02400000  *
   479       H         71.33900000  *  154.89000000  * -62.40800000  *
   480       H         70.81900000  *  153.66100000  * -63.56600000  *
   481       N         70.11800000  *  155.62600000  * -63.99700000  *
   482       H         69.74700000  *  156.41600000  * -63.48300000  *
   483       H         70.92600000  *  155.93300000  * -64.52500000  *
   484       H         69.41500000  *  155.27800000  * -64.63600000  *
   485       C         70.36000000  *  152.21400000  * -58.25300000  *
   486       O         70.19400000  *  153.07400000  * -57.38700000  *
   487       N         71.53700000  *  151.64500000  * -58.50700000  *
   488       H         71.59600000  *  150.90400000  * -59.18600000  *
   489       C         72.75000000  *  152.07400000  * -57.83600000  *
   490       H         72.53800000  *  152.52600000  * -56.87100000  *
   491       C         73.72700000  *  150.91100000  * -57.67000000  *
   492       H         73.31500000  *  150.22100000  * -56.93700000  *
   493       H         73.77900000  *  150.36900000  * -58.62000000  *
   494       C         75.16700000  *  151.27300000  * -57.28800000  *
   495       H         75.65500000  *  151.80300000  * -58.10000000  *
   496       C         75.18300000  *  152.16500000  * -56.05900000  *
   497       H         74.60800000  *  151.72100000  * -55.25200000  *
   498       H         76.21000000  *  152.29600000  * -55.73500000  *
   499       H         74.78900000  *  153.14000000  * -56.31200000  *
   500       C         75.93300000  *  149.99400000  * -57.01300000  *
   501       H         75.98300000  *  149.42100000  * -57.93300000  *
   502       H         76.94600000  *  150.24200000  * -56.71200000  *
   503       H         75.43500000  *  149.41000000  * -56.23200000  *
   504       C         73.31900000  *  153.11300000  * -58.79500000  *
   505       O         73.76900000  *  152.77900000  * -59.89700000  *
   506       N         73.26700000  *  154.36900000  * -58.37800000  *
   507       H         72.92600000  *  154.57000000  * -57.44900000  *
   508       C         73.73400000  *  155.46600000  * -59.19700000  *
   509       H         73.47500000  *  155.26500000  * -60.23600000  *
   510       C         73.02500000  *  156.74200000  * -58.76000000  *
   511       H         73.45000000  *  157.06300000  * -57.80900000  *
   512       H         73.23600000  *  157.53300000  * -59.48700000  *
   513       C         71.51300000  *  156.60300000  * -58.58700000  *
   514       H         71.27400000  *  155.80900000  * -57.88500000  *
   515       C         70.97400000  *  157.88000000  * -58.01900000  *
   516       H         71.37000000  *  158.74600000  * -58.56000000  *
   517       H         69.88800000  *  157.89100000  * -58.09300000  *
   518       H         71.22100000  *  157.96000000  * -56.96600000  *
   519       C         70.85100000  *  156.29000000  * -59.92300000  *
   520       H         71.28300000  *  155.39700000  * -60.34200000  *
   521       H         69.78900000  *  156.14400000  * -59.75100000  *
   522       H         71.00300000  *  157.12700000  * -60.60700000  *
   523       C         75.24500000  *  155.67800000  * -59.15800000  *
   524       O         75.83900000  *  156.04700000  * -60.17600000  *
   525       N         75.86200000  *  155.44600000  * -57.99600000  *
   526       H         75.29500000  *  155.17900000  * -57.20400000  *
   527       C         77.30800000  *  155.64700000  * -57.82900000  *
   528       H         77.80800000  *  155.40400000  * -58.76600000  *
   529       C         77.60000000  *  157.11700000  * -57.51900000  *
   530       H         76.91700000  *  157.54400000  * -56.80300000  *
   531       H         78.58200000  *  157.17000000  * -57.04800000  *
   532       C         77.65600000  *  157.97500000  * -58.75600000  *
   533       O         78.67800000  *  157.91700000  * -59.48300000  *
   534       O         76.67400000  *  158.70400000  * -59.00000000  *
   535       C         77.97900000  *  154.81700000  * -56.73400000  *
   536       O         77.37100000  *  154.52100000  * -55.70400000  *
   537       N         79.24700000  *  154.47700000  * -56.96600000  *
   538       H         79.69800000  *  154.82400000  * -57.79800000  *
   539       C         80.06100000  *  153.73800000  * -56.00300000  *
   540       H         79.55400000  *  153.69900000  * -55.05200000  *
   541       C         80.36600000  *  152.29800000  * -56.50400000  *
   542       H         79.42700000  *  151.75200000  * -56.56200000  *
   543       C         80.98100000  *  152.34300000  * -57.88400000  *
   544       H         82.06600000  *  152.43300000  * -57.82100000  *
   545       H         80.74600000  *  151.41400000  * -58.37900000  *
   546       H         80.59600000  *  153.14500000  * -58.51000000  *
   547       C         81.29900000  *  151.58800000  * -55.53900000  *
   548       H         80.81100000  *  151.54900000  * -54.57200000  *
   549       H         81.47300000  *  150.57200000  * -55.87800000  *
   550       H         82.25900000  *  152.09200000  * -55.44900000  *
   551       C         81.36500000  *  154.53600000  * -55.81000000  *
   552       O         82.27000000  *  154.48900000  * -56.64700000  *
   553       N         81.45200000  *  155.28200000  * -54.71000000  *
   554       H         80.67600000  *  155.30400000  * -54.06400000  *
   555       C         82.62100000  *  156.11100000  * -54.44300000  *
   556       H         83.20500000  *  156.21800000  * -55.35800000  *
   557       H         82.32200000  *  157.12800000  * -54.14500000  *
   558       H         83.29700000  *  155.73900000  * -53.65600000  *
   559       H         84.58000000  *  155.17100000  * -47.07300000  *
   560       C         84.22500000  *  154.98400000  * -48.09100000  *
   561       O         84.63900000  *  155.65900000  * -49.04200000  *
   562       N         83.35800000  *  153.99100000  * -48.22200000  *
   563       H         83.13600000  *  153.42800000  * -47.41700000  *
   564       C         82.77600000  *  153.65100000  * -49.50600000  *
   565       H         83.37000000  *  154.04700000  * -50.31700000  *
   566       C         82.71900000  *  152.14000000  * -49.66000000  *
   567       H         83.74000000  *  151.87500000  * -49.95700000  *
   568       H         82.64400000  *  151.54600000  * -48.78400000  *
   569       C         81.82600000  *  151.61900000  * -50.77900000  *
   570       H         80.79100000  *  151.88400000  * -50.58700000  *
   571       C         82.25800000  *  152.23100000  * -52.09200000  *
   572       H         83.31100000  *  152.49100000  * -52.08900000  *
   573       H         82.09300000  *  151.51300000  * -52.88400000  *
   574       H         81.65400000  *  153.10900000  * -52.31200000  *
   575       C         81.89900000  *  150.09400000  * -50.82200000  *
   576       H         81.91300000  *  149.66400000  * -49.82700000  *
   577       H         81.05200000  *  149.70600000  * -51.39100000  *
   578       H         82.82500000  *  149.80300000  * -51.32100000  *
   579       C         81.36700000  *  154.23200000  * -49.54800000  *
   580       O         80.51800000  *  153.85700000  * -48.74500000  *
   581       N         81.13100000  *  155.16100000  * -50.46700000  *
   582       H         81.84500000  *  155.34800000  * -51.16200000  *
   583       C         79.82200000  *  155.78100000  * -50.60800000  *
   584       H         79.27400000  *  155.67000000  * -49.68700000  *
   585       C         79.96700000  *  157.27800000  * -50.86800000  *
   586       H         80.42300000  *  157.50400000  * -51.79700000  *
   587       H         78.95400000  *  157.66400000  * -50.98900000  *
   588       C         80.57600000  *  158.04300000  * -49.72300000  *
   589       C         79.79300000  *  158.48000000  * -48.65600000  *
   590       H         78.73500000  *  158.25400000  * -48.66900000  *
   591       C         80.35600000  *  159.18600000  * -47.59400000  *
   592       H         79.75300000  *  159.56200000  * -46.79700000  *
   593       C         81.71600000  *  159.45200000  * -47.58700000  *
   594       O         82.27600000  *  160.12500000  * -46.52100000  *
   595       H         83.20600000  *  160.30800000  * -46.74500000  *
   596       C         82.51400000  *  159.02600000  * -48.63700000  *
   597       H         83.58200000  *  159.23300000  * -48.65000000  *
   598       C         81.94100000  *  158.32800000  * -49.69800000  *
   599       H         82.57400000  *  157.98100000  * -50.50200000  *
   600       C         79.04800000  *  155.15800000  * -51.76500000  *
   601       O         79.54400000  *  155.08000000  * -52.88800000  *
   602       N         77.86200000  *  154.62400000  * -51.49500000  *
   603       H         77.53700000  *  154.64700000  * -50.53500000  *
   604       C         76.98200000  *  154.05300000  * -52.51100000  *
   605       H         77.50600000  *  153.99900000  * -53.45900000  *
   606       C         76.55200000  *  152.62100000  * -52.14700000  *
   607       H         75.87100000  *  152.66500000  * -51.30600000  *
   608       H         76.00100000  *  152.21400000  * -52.99600000  *
   609       C         77.69200000  *  151.65300000  * -51.79000000  *
   610       H         78.21100000  *  152.00400000  * -50.89800000  *
   611       C         77.12700000  *  150.26300000  * -51.50200000  *
   612       H         76.62700000  *  149.86800000  * -52.38900000  *
   613       H         77.93500000  *  149.58800000  * -51.21800000  *
   614       H         76.41500000  *  150.31800000  * -50.68000000  *
   615       C         78.69100000  *  151.52800000  * -52.93300000  *
   616       H         79.20800000  *  152.47400000  * -53.07200000  *
   617       H         79.43100000  *  150.76900000  * -52.68700000  *
   618       H         78.17400000  *  151.25700000  * -53.85400000  *
   619       C         75.78600000  *  154.98400000  * -52.67300000  *
   620       O         75.10300000  *  155.26200000  * -51.68300000  *
   621       N         75.54700000  *  155.50800000  * -53.87800000  *
   622       H         76.14500000  *  155.25500000  * -54.66000000  *
   623       C         74.40900000  *  156.37500000  * -54.09400000  *
   624       H         73.97600000  *  156.70200000  * -53.15000000  *
   625       C         74.83400000  *  157.63700000  * -54.81800000  *
   626       H         75.25500000  *  157.34500000  * -55.76600000  *
   627       C         73.61400000  *  158.52200000  * -55.10900000  *
   628       H         73.11700000  *  158.76900000  * -54.17500000  *
   629       H         73.94100000  *  159.43100000  * -55.61500000  *
   630       H         72.91600000  *  158.00900000  * -55.76200000  *
   631       C         75.84000000  *  158.38200000  * -53.94900000  *
   632       H         75.28100000  *  158.78400000  * -53.13000000  *
   633       H         76.65600000  *  157.75800000  * -53.60500000  *
   634       H         76.26100000  *  159.20400000  * -54.52500000  *
   635       C         73.31400000  *  155.64400000  * -54.85300000  *
   636       O         73.49500000  *  155.22100000  * -55.99400000  *
   637       N         72.20800000  *  155.38400000  * -54.16200000  *
   638       H         72.13600000  *  155.73700000  * -53.21200000  *
   639       C         71.03100000  *  154.71700000  * -54.71000000  *
   640       H         71.28400000  *  154.26100000  * -55.66300000  *
   641       C         70.56900000  *  153.61100000  * -53.75600000  *
   642       H         70.42000000  *  154.03800000  * -52.76400000  *
   643       H         69.59900000  *  153.25500000  * -54.09700000  *
   644       C         71.50000000  *  152.41800000  * -53.64600000  *
   645       C         71.35100000  *  151.32600000  * -54.52300000  *
   646       H         70.60200000  *  151.35000000  * -55.30000000  *
   647       C         72.16800000  *  150.19000000  * -54.38600000  *
   648       H         72.04100000  *  149.34800000  * -55.05400000  *
   649       C         73.14500000  *  150.14400000  * -53.37700000  *
   650       H         73.77400000  *  149.26900000  * -53.27100000  *
   651       C         73.30200000  *  151.23600000  * -52.50600000  *
   652       H         74.04500000  *  151.19400000  * -51.72400000  *
   653       C         72.48500000  *  152.37400000  * -52.64100000  *
   654       H         72.60400000  *  153.20800000  * -51.96200000  *
   655       C         69.90400000  *  155.72600000  * -54.94500000  *
   656       O         69.76400000  *  156.69400000  * -54.19600000  *
   657       N         69.08200000  *  155.51000000  * -55.97300000  *
   658       H         69.23700000  *  154.68800000  * -56.54800000  *
   659       C         67.82000000  *  156.25300000  * -56.12100000  *
   660       H         68.06500000  *  157.30100000  * -56.29700000  *
   661       C         67.03100000  *  155.74600000  * -57.34200000  *
   662       H         66.17700000  *  156.40800000  * -57.48400000  *
   663       H         67.66600000  *  155.80700000  * -58.22600000  *
   664       C         66.52400000  *  154.30300000  * -57.18400000  *
   665       H         67.38200000  *  153.64400000  * -57.04300000  *
   666       H         65.89800000  *  154.23700000  * -56.29800000  *
   667       C         65.68200000  *  153.80100000  * -58.35900000  *
   668       O         65.16900000  *  154.61200000  * -59.16400000  *
   669       O         65.49100000  *  152.56700000  * -58.44000000  *
   670       C         66.98200000  *  156.17200000  * -54.82800000  *
   671       O         66.91400000  *  155.11800000  * -54.19400000  *
   672       N         66.35400000  *  157.27000000  * -54.40200000  *
   673       H         66.39400000  *  158.11700000  * -54.95100000  *
   674       C         65.49900000  *  157.25500000  * -53.21100000  *
   675       H         65.98000000  *  156.64200000  * -52.44500000  *
   676       C         65.37700000  *  158.67200000  * -52.64400000  *
   677       H         66.37400000  *  159.03500000  * -52.39800000  *
   678       H         64.96200000  *  159.32600000  * -53.41200000  *
   679       C         64.52300000  *  158.76900000  * -51.39400000  *
   680       C         63.22200000  *  159.30400000  * -51.46100000  *
   681       H         62.82400000  *  159.65100000  * -52.40500000  *
   682       C         62.43300000  *  159.38500000  * -50.30100000  *
   683       H         61.43400000  *  159.79500000  * -50.35700000  *
   684       C         62.93900000  *  158.92900000  * -49.07200000  *
   685       H         62.33000000  *  158.98600000  * -48.18000000  *
   686       C         64.23800000  *  158.39600000  * -49.00200000  *
   687       H         64.62700000  *  158.04900000  * -48.05500000  *
   688       C         65.03000000  *  158.31600000  * -50.16200000  *
   689       H         66.02800000  *  157.90500000  * -50.10600000  *
   690       C         64.11900000  *  156.64400000  * -53.50200000  *
   691       O         63.46900000  *  157.00400000  * -54.48700000  *
   692       N         63.65100000  *  155.77000000  * -52.60700000  *
   693       H         64.26200000  *  155.50400000  * -51.84400000  *
   694       C         62.25900000  *  155.31400000  * -52.52500000  *
   695       H         61.65400000  *  155.83800000  * -53.26800000  *
   696       C         62.15500000  *  153.80200000  * -52.79000000  *
   697       H         62.88100000  *  153.27800000  * -52.17000000  *
   698       H         61.15900000  *  153.48500000  * -52.47400000  *
   699       C         62.34000000  *  153.41700000  * -54.27100000  *
   700       H         62.02000000  *  154.24100000  * -54.90900000  *
   701       C         63.79700000  *  153.07200000  * -54.58000000  *
   702       H         64.13500000  *  152.27200000  * -53.92400000  *
   703       H         63.89600000  *  152.76600000  * -55.62100000  *
   704       H         64.42600000  *  153.94500000  * -54.42000000  *
   705       C         61.48800000  *  152.19500000  * -54.62100000  *
   706       H         60.44100000  *  152.39500000  * -54.39300000  *
   707       H         61.56800000  *  151.98400000  * -55.68600000  *
   708       H         61.81800000  *  151.32600000  * -54.05500000  *
   709       C         61.68800000  *  155.66800000  * -51.14800000  *
   710       O         62.40300000  *  155.65500000  * -50.14900000  *
   711       N         60.41000000  *  156.03600000  * -51.09800000  *
   712       H         59.88900000  *  156.05500000  * -51.96600000  *
   713       C         59.80800000  *  156.73000000  * -49.95500000  *
   714       H         60.49700000  *  157.51400000  * -49.63900000  *
   715       C         58.52100000  *  157.42200000  * -50.42700000  *
   716       H         57.76400000  *  156.66200000  * -50.62000000  *
   717       H         58.16500000  *  158.07000000  * -49.62700000  *
   718       C         58.68200000  *  158.25300000  * -51.68000000  *
   719       N         58.74300000  *  157.75000000  * -52.98500000  *
   720       C         58.91600000  *  158.81800000  * -53.78400000  *
   721       H         59.00200000  *  158.77900000  * -54.86500000  *
   722       N         58.96700000  *  159.94400000  * -53.05300000  *
   723       H         59.08900000  *  160.88000000  * -53.43100000  *
   724       C         58.82400000  *  159.60900000  * -51.72400000  *
   725       H         58.82600000  *  160.28300000  * -50.87600000  *
   726       C         59.55100000  *  155.86800000  * -48.70500000  *
   727       O         59.43000000  *  156.42400000  * -47.61200000  *
   728       N         59.46400000  *  154.53900000  * -48.83500000  *
   729       H         59.58700000  *  154.14000000  * -49.75600000  *
   730       C         59.09700000  *  153.61800000  * -47.74600000  *
   731       H         59.55700000  *  153.96900000  * -46.82200000  *
   732       C         57.56400000  *  153.65800000  * -47.56500000  *
   733       H         57.28200000  *  154.67500000  * -47.28900000  *
   734       H         57.07600000  *  153.41800000  * -48.51100000  *
   735       C         57.04400000  *  152.70000000  * -46.48300000  *
   736       H         56.92600000  *  151.70700000  * -46.91200000  *
   737       H         57.77200000  *  152.64300000  * -45.67500000  *
   738       C         55.72100000  *  153.15400000  * -45.87700000  *
   739       O         55.67300000  *  153.86300000  * -44.88600000  *
   740       N         54.59500000  *  152.76800000  * -46.43900000  *
   741       H         53.74100000  *  153.09100000  * -46.01000000  *
   742       H         54.60500000  *  152.21700000  * -47.27800000  *
   743       C         59.61200000  *  152.18600000  * -47.99400000  *
   744       O         59.68400000  *  151.74000000  * -49.14100000  *
   745       N         59.95300000  *  151.45700000  * -46.92400000  *
   746       H         59.85800000  *  151.88200000  * -46.00200000  *
   747       C         60.28100000  *  150.02300000  * -46.99300000  *
   748       H         60.57800000  *  149.80300000  * -48.01500000  *
   749       C         61.50700000  *  149.69200000  * -46.12300000  *
   750       H         61.84100000  *  148.68800000  * -46.38900000  *
   751       H         62.31200000  *  150.38000000  * -46.38800000  *
   752       C         61.28700000  *  149.73300000  * -44.60700000  *
   753       O         60.30700000  *  149.13000000  * -44.12300000  *
   754       O         62.14900000  *  150.31200000  * -43.90500000  *
   755       C         59.07500000  *  149.10700000  * -46.69700000  *
   756       O         58.04200000  *  149.53800000  * -46.16600000  *
   757       N         59.19100000  *  147.81900000  * -47.04800000  *
   758       H         60.03800000  *  147.50900000  * -47.52500000  *
   759       C         58.10100000  *  146.88000000  * -46.84100000  *
   760       H         57.21800000  *  147.32500000  * -47.29300000  *
   761       C         58.41200000  *  145.57700000  * -47.59200000  *
   762       H         58.61300000  *  145.80400000  * -48.64400000  *
   763       H         59.28800000  *  145.12100000  * -47.15800000  *
   764       C         57.28700000  *  144.52700000  * -47.51900000  *
   765       H         57.05600000  *  144.28000000  * -46.48700000  *
   766       C         56.00700000  *  145.04400000  * -48.19600000  *
   767       H         56.23500000  *  145.37800000  * -49.20200000  *
   768       H         55.26800000  *  144.24500000  * -48.23100000  *
   769       H         55.59500000  *  145.87000000  * -47.62900000  *
   770       C         57.76800000  *  143.24900000  * -48.17500000  *
   771       H         58.61500000  *  142.85400000  * -47.62000000  *
   772       H         56.97300000  *  142.50400000  * -48.17100000  *
   773       H         58.06400000  *  143.44500000  * -49.20700000  *
   774       C         57.76400000  *  146.61300000  * -45.36900000  *
   775       O         56.60900000  *  146.37600000  * -45.03000000  *
   776       N         58.75700000  *  146.67700000  * -44.48800000  *
   777       H         59.64000000  *  147.08600000  * -44.79000000  *
   778       C         58.49100000  *  146.46700000  * -43.07300000  *
   779       H         57.97900000  *  145.55100000  * -42.87200000  *
   780       C         59.78200000  *  146.47800000  * -42.25400000  *
   781       H         60.44800000  *  145.70000000  * -42.62000000  *
   782       H         60.28600000  *  147.44000000  * -42.35600000  *
   783       C         59.49200000  *  146.22900000  * -40.76500000  *
   784       H         58.94200000  *  147.08300000  * -40.37400000  *
   785       H         58.87100000  *  145.33200000  * -40.67600000  *
   786       C         60.74500000  *  146.03800000  * -39.93500000  *
   787       H         61.36100000  *  145.25900000  * -40.37900000  *
   788       H         61.30800000  *  146.97100000  * -39.90700000  *
   789       C         60.37600000  *  145.60700000  * -38.51700000  *
   790       H         59.98500000  *  144.58900000  * -38.53700000  *
   791       H         61.27900000  *  145.61300000  * -37.90300000  *
   792       N         59.34600000  *  146.53100000  * -37.94700000  *
   793       H         58.44600000  *  146.48100000  * -38.44300000  *
   794       H         59.09000000  *  146.27800000  * -37.00400000  *
   795       H         59.61300000  *  147.50600000  * -37.97800000  *
   796       C         57.55800000  *  147.53800000  * -42.51200000  *
   797       O         56.61300000  *  147.23400000  * -41.78300000  *
   798       N         57.83600000  *  148.81600000  * -42.79700000  *
   799       H         58.66300000  *  149.01300000  * -43.36500000  *
   800       C         56.99600000  *  149.92300000  * -42.32000000  *
   801       H         56.88100000  *  149.82700000  * -41.23900000  *
   802       C         57.66300000  *  151.27700000  * -42.60700000  *
   803       H         58.66000000  *  151.27900000  * -42.16500000  *
   804       H         57.75800000  *  151.41900000  * -43.68400000  *
   805       C         56.84200000  *  152.42800000  * -41.99800000  *
   806       H         55.87800000  *  152.48800000  * -42.50400000  *
   807       H         56.66600000  *  152.21800000  * -40.94200000  *
   808       C         57.54800000  *  153.78400000  * -42.11700000  *
   809       H         58.47400000  *  153.75500000  * -41.54100000  *
   810       H         57.77700000  *  153.98400000  * -43.16500000  *
   811       C         56.62800000  *  154.88300000  * -41.56700000  *
   812       H         55.71000000  *  154.89900000  * -42.16200000  *
   813       H         56.35400000  *  154.62600000  * -40.53900000  *
   814       N         57.27500000  *  156.22000000  * -41.59400000  *
   815       H         57.50800000  *  156.49800000  * -42.53600000  *
   816       H         56.66000000  *  156.92500000  * -41.21300000  *
   817       H         58.12100000  *  156.23000000  * -41.04400000  *
   818       C         55.59600000  *  149.82000000  * -42.91900000  *
   819       O         54.61400000  *  150.04500000  * -42.21900000  *
   820       N         55.49500000  *  149.42600000  * -44.18900000  *
   821       H         56.35000000  *  149.26300000  * -44.71300000  *
   822       C         54.20500000  *  149.26000000  * -44.85200000  *
   823       H         53.62600000  *  150.17500000  * -44.72500000  *
   824       C         54.41000000  *  148.98800000  * -46.34000000  *
   825       H         54.98900000  *  149.80200000  * -46.77700000  *
   826       H         55.00200000  *  148.07700000  * -46.45200000  *
   827       C         53.12600000  *  148.85300000  * -47.10800000  *
   828       C         52.23100000  *  149.92200000  * -47.18600000  *
   829       H         52.46300000  *  150.85600000  * -46.69900000  *
   830       C         51.01500000  *  149.79500000  * -47.88400000  *
   831       H         50.32500000  *  150.62800000  * -47.91800000  *
   832       C         50.69700000  *  148.60300000  * -48.50200000  *
   833       H         49.75200000  *  148.50200000  * -49.02000000  *
   834       C         51.58700000  *  147.52100000  * -48.43200000  *
   835       H         51.33500000  *  146.58300000  * -48.91200000  *
   836       C         52.79500000  *  147.65400000  * -47.73300000  *
   837       H         53.46700000  *  146.81000000  * -47.67200000  *
   838       C         53.37400000  *  148.12200000  * -44.22700000  *
   839       O         52.16900000  *  148.28300000  * -44.00900000  *
   840       N         54.01600000  *  146.98100000  * -43.96600000  *
   841       H         55.00900000  *  146.90600000  * -44.17900000  *
   842       C         53.33800000  *  145.83600000  * -43.34100000  *
   843       H         52.47600000  *  145.52800000  * -43.93400000  *
   844       C         54.29200000  *  144.65000000  * -43.17000000  *
   845       H         55.15800000  *  145.02700000  * -42.63600000  *
   846       H         53.80700000  *  143.89200000  * -42.54700000  *
   847       C         54.73100000  *  144.00400000  * -44.46100000  *
   848       H         53.84700000  *  143.61400000  * -44.95900000  *
   849       H         55.19200000  *  144.69400000  * -45.15000000  *
   850       S         55.79700000  *  142.58100000  * -44.15400000  *
   851       C         57.05400000  *  143.29200000  * -43.18800000  *
   852       H         56.67800000  *  143.65800000  * -42.23500000  *
   853       H         57.80700000  *  142.53400000  * -42.98200000  *
   854       H         57.44300000  *  144.07900000  * -43.80900000  *
   855       C         52.84400000  *  146.26000000  * -41.95900000  *
   856       O         51.68200000  *  146.03200000  * -41.61400000  *
   857       N         53.72600000  *  146.88400000  * -41.17900000  *
   858       H         54.70100000  *  146.95700000  * -41.45300000  *
   859       C         53.34300000  *  147.35100000  * -39.84600000  *
   860       H         53.03400000  *  146.49700000  * -39.23800000  *
   861       C         54.50500000  *  148.07700000  * -39.15700000  *
   862       H         54.94100000  *  148.81500000  * -39.83000000  *
   863       H         54.12400000  *  148.60600000  * -38.28400000  *
   864       C         55.58400000  *  147.11500000  * -38.68500000  *
   865       O         55.26200000  *  145.90900000  * -38.57600000  *
   866       O         56.73300000  *  147.55200000  * -38.41700000  *
   867       C         52.15000000  *  148.27900000  * -39.96300000  *
   868       O         51.20300000  *  148.18000000  * -39.18700000  *
   869       N         52.18300000  *  149.16200000  * -40.95500000  *
   870       H         53.01600000  *  149.23700000  * -41.51800000  *
   871       C         51.08600000  *  150.10000000  * -41.17300000  *
   872       H         50.93100000  *  150.67400000  * -40.25800000  *
   873       C         51.42800000  *  151.06800000  * -42.31500000  *
   874       H         51.45500000  *  150.53900000  * -43.26600000  *
   875       H         50.66000000  *  151.83800000  * -42.36800000  *
   876       H         52.39300000  *  151.53600000  * -42.12800000  *
   877       C         49.78900000  *  149.37000000  * -41.49900000  *
   878       O         48.71100000  *  149.83600000  * -41.15600000  *
   879       N         49.90500000  *  148.22900000  * -42.16400000  *
   880       H         50.83800000  *  147.88500000  * -42.38200000  *
   881       C         48.74000000  *  147.45400000  * -42.57500000  *
   882       H         47.85700000  *  148.08600000  * -42.62800000  *
   883       H         48.90600000  *  147.02300000  * -43.58600000  *
   884       H         48.52600000  *  146.61900000  * -41.88800000  *
   885       H         72.54500000  *  137.05800000  * -55.15200000  *
   886       C         72.38600000  *  137.90500000  * -54.47400000  *
   887       O         73.28300000  *  138.71900000  * -54.28600000  *
   888       N         71.20100000  *  138.01500000  * -53.89800000  *
   889       H         70.47300000  *  137.31400000  * -54.05700000  *
   890       C         70.96800000  *  139.10000000  * -52.94900000  *
   891       H         71.50000000  *  140.00600000  * -53.22900000  *
   892       C         69.47700000  *  139.40500000  * -52.82500000  *
   893       H         69.09300000  *  139.71900000  * -53.79200000  *
   894       H         68.93000000  *  138.50600000  * -52.53300000  *
   895       C         69.17800000  *  140.45400000  * -51.81200000  *
   896       N         69.23000000  *  140.42300000  * -50.45900000  *
   897       C         68.94700000  *  141.69100000  * -50.01400000  *
   898       H         68.96900000  *  142.01200000  * -48.98400000  *
   899       N         68.72400000  *  142.47200000  * -51.05500000  *
   900       H         68.47200000  *  143.44500000  * -51.00700000  *
   901       C         68.85400000  *  141.75000000  * -52.15500000  *
   902       H         68.77100000  *  142.12600000  * -53.16500000  *
   903       C         71.52100000  *  138.65700000  * -51.58300000  *
   904       O         72.28000000  *  139.38000000  * -50.94700000  *
   905       N         71.11400000  *  137.47100000  * -51.14500000  *
   906       H         70.37100000  *  137.01600000  * -51.66500000  *
   907       C         71.55500000  *  136.88000000  * -49.87700000  *
   908       H         71.18200000  *  135.84900000  * -49.87900000  *
   909       C         73.07600000  *  136.85300000  * -49.83700000  *
   910       H         73.53100000  *  137.83300000  * -49.86900000  *
   911       H         73.36600000  *  136.47900000  * -48.85100000  *
   912       C         73.64700000  *  135.85900000  * -50.81700000  *
   913       H         73.29800000  *  134.87100000  * -50.67200000  *
   914       H         73.21600000  *  136.10500000  * -51.78700000  *
   915       C         75.11700000  *  136.08400000  * -50.99900000  *
   916       H         75.61200000  *  135.95400000  * -50.03300000  *
   917       H         75.49500000  *  135.33200000  * -51.69500000  *
   918       N         75.35800000  *  137.42700000  * -51.50600000  *
   919       H         74.62100000  *  138.12700000  * -51.38200000  *
   920       C         76.54800000  *  137.85900000  * -51.89000000  *
   921       N         77.59300000  *  137.04400000  * -51.81500000  *
   922       H         77.44700000  *  136.21200000  * -51.26800000  *
   923       H         78.49900000  *  137.44300000  * -51.92100000  *
   924       N         76.69000000  *  139.09300000  * -52.35600000  *
   925       H         75.86000000  *  139.69200000  * -52.33800000  *
   926       H         77.56200000  *  139.47800000  * -52.67100000  *
   927       C         71.03700000  *  137.42400000  * -48.54200000  *
   928       O         71.18700000  *  136.76800000  * -47.50900000  *
   929       N         70.43700000  *  138.60400000  * -48.51600000  *
   930       H         70.32800000  *  139.16900000  * -49.34700000  *
   931       C         69.93700000  *  139.07600000  * -47.23100000  *
   932       H         69.76500000  *  138.24900000  * -46.54100000  *
   933       C         70.93500000  *  140.04200000  * -46.56200000  *
   934       H         71.90900000  *  139.56600000  * -46.50900000  *
   935       H         71.04400000  *  140.94300000  * -47.17900000  *
   936       C         70.51300000  *  140.42800000  * -45.14700000  *
   937       O         70.17200000  *  139.51500000  * -44.35500000  *
   938       O         70.51000000  *  141.64400000  * -44.82500000  *
   939       C         68.58700000  *  139.73400000  * -47.37800000  *
   940       O         68.35000000  *  140.81000000  * -46.83500000  *
   941       N         67.68700000  *  139.08300000  * -48.11000000  *
   942       H         67.94300000  *  138.20800000  * -48.54500000  *
   943       C         66.35900000  *  139.64900000  * -48.29900000  *
   944       H         66.47700000  *  140.66700000  * -48.65900000  *
   945       C         65.54600000  *  138.81300000  * -49.28800000  *
   946       H         65.58300000  *  137.78400000  * -48.94500000  *
   947       H         64.50600000  *  139.14000000  * -49.25500000  *
   948       C         66.02700000  *  138.85500000  * -50.73600000  *
   949       H         67.06400000  *  138.52800000  * -50.78200000  *
   950       C         65.17300000  *  137.91700000  * -51.58300000  *
   951       H         64.15900000  *  138.30500000  * -51.68800000  *
   952       H         65.63400000  *  137.80700000  * -52.55000000  *
   953       H         65.13400000  *  136.93500000  * -51.11000000  *
   954       C         65.92100000  *  140.27700000  * -51.26400000  *
   955       H         66.42000000  *  140.99600000  * -50.63300000  *
   956       H         66.44200000  *  140.27500000  * -52.20900000  *
   957       H         64.88200000  *  140.56100000  * -51.39700000  *
   958       C         65.59400000  *  139.73400000  * -46.98200000  *
   959       O         65.58600000  *  138.79200000  * -46.16600000  *
   960       N         64.95900000  *  140.85700000  * -46.74200000  *
   961       H         64.96700000  *  141.58800000  * -47.44100000  *
   962       C         64.17200000  *  141.06500000  * -45.54200000  *
   963       H         63.56100000  *  140.17400000  * -45.40000000  *
   964       C         65.05300000  *  141.23200000  * -44.28300000  *
   965       H         64.41800000  *  141.29400000  * -43.39900000  *
   966       H         65.65300000  *  140.32900000  * -44.16700000  *
   967       C         65.98900000  *  142.44800000  * -44.28800000  *
   968       H         66.39900000  *  142.59200000  * -45.28500000  *
   969       H         65.43200000  *  143.33800000  * -43.99700000  *
   970       C         67.14600000  *  142.19800000  * -43.31200000  *
   971       H         66.74900000  *  141.93000000  * -42.33100000  *
   972       H         67.72900000  *  141.35600000  * -43.69400000  *
   973       C         68.04900000  *  143.42700000  * -43.17200000  *
   974       H         68.13900000  *  143.91600000  * -44.14700000  *
   975       H         67.57000000  *  144.13600000  * -42.48700000  *
   976       N         69.39400000  *  143.03600000  * -42.67400000  *
   977       H         69.87500000  *  142.44600000  * -43.36700000  *
   978       H         69.96400000  *  143.85000000  * -42.48200000  *
   979       H         69.31700000  *  142.51100000  * -41.81200000  *
   980       C         63.26800000  *  142.23100000  * -45.83400000  *
   981       O         63.62900000  *  143.07500000  * -46.65400000  *
   982       N         62.11200000  *  142.30300000  * -45.18600000  *
   983       C         61.62600000  *  141.34600000  * -44.17100000  *
   984       H         62.10000000  *  141.53200000  * -43.20900000  *
   985       H         61.74500000  *  140.31100000  * -44.47600000  *
   986       C         60.16400000  *  141.66900000  * -44.09500000  *
   987       H         59.73700000  *  141.34900000  * -43.14300000  *
   988       H         59.63700000  *  141.20600000  * -44.93200000  *
   989       C         60.16000000  *  143.18900000  * -44.24800000  *
   990       H         60.51600000  *  143.64900000  * -43.32100000  *
   991       H         59.20200000  *  143.56500000  * -44.57400000  *
   992       C         61.14500000  *  143.38000000  * -45.40300000  *
   993       H         60.63400000  *  143.20500000  * -46.34500000  *
   994       C         61.77100000  *  144.77100000  * -45.44800000  *
   995       O         61.39200000  *  145.58400000  * -46.27300000  *
   996       N         62.73100000  *  145.08700000  * -44.56100000  *
   997       H         62.97500000  *  144.39800000  * -43.86600000  *
   998       C         63.44900000  *  146.38600000  * -44.53300000  *
   999       H         62.71700000  *  147.19100000  * -44.44700000  *
  1000       C         64.39200000  *  146.45300000  * -43.31800000  *
  1001       H         65.08300000  *  145.61100000  * -43.35600000  *
  1002       H         64.98300000  *  147.36900000  * -43.39100000  *
  1003       C         63.68200000  *  146.47300000  * -41.95800000  *
  1004       H         62.98300000  *  147.31000000  * -41.93800000  *
  1005       H         63.12500000  *  145.54800000  * -41.82300000  *
  1006       C         64.67500000  *  146.60800000  * -40.80100000  *
  1007       O         65.69300000  *  145.93200000  * -40.73800000  *
  1008       N         64.42400000  *  147.47000000  * -39.84000000  *
  1009       H         65.08900000  *  147.54700000  * -39.08400000  *
  1010       H         63.61500000  *  148.07100000  * -39.87800000  *
  1011       C         64.30000000  *  146.67700000  * -45.78800000  *
  1012       O         64.53900000  *  147.83500000  * -46.12500000  *
  1013       N         64.76200000  *  145.63100000  * -46.47700000  *
  1014       H         64.45100000  *  144.71300000  * -46.19300000  *
  1015       C         65.53800000  *  145.69800000  * -47.71800000  *
  1016       H         66.09600000  *  146.63600000  * -47.75200000  *
  1017       C         66.55500000  *  144.52700000  * -47.75000000  *
  1018       H         66.05900000  *  143.60000000  * -47.47800000  *
  1019       H         66.92500000  *  144.40100000  * -48.76500000  *
  1020       C         67.78700000  *  144.72100000  * -46.87500000  *
  1021       O         68.11000000  *  145.81200000  * -46.43000000  *
  1022       N         68.53300000  *  143.67100000  * -46.60200000  *
  1023       H         69.40400000  *  143.81300000  * -46.11800000  *
  1024       H         68.27600000  *  142.72300000  * -46.86400000  *
  1025       C         64.63300000  *  145.70700000  * -48.96800000  *
  1026       O         65.15500000  *  145.62000000  * -50.07800000  *
  1027       N         63.30000000  *  145.80300000  * -48.83400000  *
  1028       H         62.89500000  *  145.87300000  * -47.90900000  *
  1029       C         62.40600000  *  145.84500000  * -49.97900000  *
  1030       H         62.94700000  *  145.74800000  * -50.91900000  *
  1031       C         61.36900000  *  144.72100000  * -49.88900000  *
  1032       H         60.76900000  *  144.86100000  * -48.99200000  *
  1033       H         60.74400000  *  144.79800000  * -50.77200000  *
  1034       C         62.03600000  *  143.32400000  * -49.85900000  *
  1035       H         62.67100000  *  143.24000000  * -48.98800000  *
  1036       C         61.00200000  *  142.26000000  * -49.77100000  *
  1037       H         60.24600000  *  142.42800000  * -50.53400000  *
  1038       H         61.44700000  *  141.27100000  * -49.89000000  *
  1039       H         60.52000000  *  142.31900000  * -48.79800000  *
  1040       C         62.89500000  *  143.12600000  * -51.08400000  *
  1041       H         63.82900000  *  143.66800000  * -50.95600000  *
  1042       H         63.12900000  *  142.06900000  * -51.20900000  *
  1043       H         62.39300000  *  143.49200000  * -51.96600000  *
  1044       C         61.76300000  *  147.21800000  * -49.95200000  *
  1045       O         61.15000000  *  147.60200000  * -48.96600000  *
  1046       N         61.89400000  *  147.98800000  * -51.02500000  *
  1047       H         62.38600000  *  147.61900000  * -51.83400000  *
  1048       C         61.44800000  *  149.38100000  * -51.05300000  *
  1049       H         61.05400000  *  149.67400000  * -50.08100000  *
  1050       C         62.62700000  *  150.30000000  * -51.36400000  *
  1051       H         62.96500000  *  150.10500000  * -52.38200000  *
  1052       H         62.26400000  *  151.32400000  * -51.30300000  *
  1053       C         63.82100000  *  150.13800000  * -50.41500000  *
  1054       H         64.25300000  *  149.14600000  * -50.52900000  *
  1055       C         64.85600000  *  151.17700000  * -50.79600000  *
  1056       H         64.46800000  *  152.16500000  * -50.56200000  *
  1057       H         65.77300000  *  150.98700000  * -50.24400000  *
  1058       H         65.06900000  *  151.14200000  * -51.85800000  *
  1059       C         63.47900000  *  150.36100000  * -48.94400000  *
  1060       H         62.84400000  *  149.55200000  * -48.59600000  *
  1061       H         64.39000000  *  150.35200000  * -48.34800000  *
  1062       H         62.96200000  *  151.31200000  * -48.81400000  *
  1063       C         60.32800000  *  149.56900000  * -52.06200000  *
  1064       O         60.43100000  *  149.11100000  * -53.18800000  *
  1065       N         59.26800000  *  150.25600000  * -51.67700000  *
  1066       H         59.36500000  *  150.76300000  * -50.80000000  *
  1067       C         58.08300000  *  150.44700000  * -52.50800000  *
  1068       H         58.17300000  *  149.92400000  * -53.45700000  *
  1069       C         56.81900000  *  149.90600000  * -51.78600000  *
  1070       H         55.94300000  *  150.08700000  * -52.41500000  *
  1071       C         56.95000000  *  148.40400000  * -51.54300000  *
  1072       H         57.75300000  *  148.18300000  * -50.83300000  *
  1073       H         56.01300000  *  148.00400000  * -51.15200000  *
  1074       H         57.15800000  *  147.91500000  * -52.48900000  *
  1075       C         56.64700000  *  150.60600000  * -50.43300000  *
  1076       H         57.48200000  *  150.38000000  * -49.77500000  *
  1077       H         56.60500000  *  151.68300000  * -50.57600000  *
  1078       C         55.37000000  *  150.22200000  * -49.68600000  *
  1079       H         55.48900000  *  149.24800000  * -49.22200000  *
  1080       H         55.17000000  *  150.96500000  * -48.91000000  *
  1081       H         54.52900000  *  150.16800000  * -50.38500000  *
  1082       C         57.87200000  *  151.93000000  * -52.81700000  *
  1083       O         58.38200000  *  152.79400000  * -52.10000000  *
  1084       N         57.14900000  *  152.22000000  * -53.89700000  *
  1085       H         56.70500000  *  151.48200000  * -54.43300000  *
  1086       C         56.84100000  *  153.60200000  * -54.22700000  *
  1087       H         57.16800000  *  154.27800000  * -53.43100000  *
  1088       C         57.50400000  *  154.05300000  * -55.54100000  *
  1089       H         57.21800000  *  155.07000000  * -55.80500000  *
  1090       H         58.58200000  *  154.04400000  * -55.38800000  *
  1091       C         57.19300000  *  153.14600000  * -56.70100000  *
  1092       O         56.13500000  *  152.53500000  * -56.76400000  *
  1093       N         58.11500000  *  153.07200000  * -57.64100000  *
  1094       H         57.83300000  *  152.61700000  * -58.48600000  *
  1095       H         58.88600000  *  153.71500000  * -57.62100000  *
  1096       C         55.33100000  *  153.75800000  * -54.32100000  *
  1097       O         54.57600000  *  152.79900000  * -54.11400000  *
  1098       N         54.88500000  *  154.97100000  * -54.62100000  *
  1099       H         55.52100000  *  155.73600000  * -54.79200000  *
  1100       C         53.46400000  *  155.24700000  * -54.72300000  *
  1101       H         52.92700000  *  154.82600000  * -53.87200000  *
  1102       C         53.20900000  *  156.78000000  * -54.75500000  *
  1103       H         52.16900000  *  156.98000000  * -55.02600000  *
  1104       C         53.47800000  *  157.39700000  * -53.41000000  *
  1105       H         54.52100000  *  157.25500000  * -53.13000000  *
[...]
 1005  H   0.82950
 1006  C   1.06512   0.79579   0.73654   0.79826
 1007  O   1.87738   1.40668   1.58103   1.82856
 1008  N   1.52699   1.35146   1.41013   1.31084
 1009  H   0.65610
 1010  H   0.66447
 1011  C   1.08387   0.75790   0.78103   0.81315
 1012  O   1.88505   1.65888   1.31008   1.73851
 1013  N   1.55202   1.50772   1.20379   1.30047
 1014  H   0.66498
 1015  C   1.07272   0.94633   1.09506   0.82013
 1016  H   0.80304
 1017  C   1.07029   1.04739   1.09146   1.16400
 1018  H   0.83088
 1019  H   0.79593
 1020  C   1.05987   0.80720   0.76668   0.75493
 1021  O   1.87716   1.76837   1.39432   1.62778
 1022  N   1.53151   1.31428   1.19470   1.58360
 1023  H   0.66784
 1024  H   0.65336
 1025  C   1.08771   0.78551   0.72027   0.85304
 1026  O   1.87895   1.76747   1.61011   1.37934
 1027  N   1.54110   1.12586   1.66470   1.18356
 1028  H   0.65385
 1029  C   1.06991   0.96893   0.97977   0.97456
 1030  H   0.81091
 1031  C   1.06730   1.06428   0.99766   1.17283
 1032  H   0.83716
 1033  H   0.84813
 1034  C   1.04101   1.01197   0.94631   1.06220
 1035  H   0.85597
 1036  C   1.04919   1.12583   1.11843   1.17083
 1037  H   0.84483
 1038  H   0.84888
 1039  H   0.86560
 1040  C   1.05152   1.14141   1.17189   1.09904
 1041  H   0.84480
 1042  H   0.85749
 1043  H   0.84978
 1044  C   1.07655   0.74984   0.84303   0.75555
 1045  O   1.87194   1.53775   1.79741   1.44586
 1046  N   1.54593   1.55583   1.17062   1.24872
 1047  H   0.64535
 1048  C   1.06597   0.98935   0.82528   1.09904
 1049  H   0.81437
 1050  C   1.06481   1.02227   1.10410   1.12725
 1051  H   0.84694
 1052  H   0.84106
 1053  C   1.04818   0.96783   1.07162   0.96875
 1054  H   0.86587
 1055  C   1.05405   1.12418   1.12846   1.16653
 1056  H   0.84672
 1057  H   0.84712
 1058  H   0.86105
 1059  C   1.05495   1.17609   1.17701   1.04612
 1060  H   0.84088
 1061  H   0.85158
 1062  H   0.84757
 1063  C   1.07659   0.79774   0.74353   0.81773
 1064  O   1.86928   1.83043   1.62405   1.34157
 1065  N   1.54143   1.18975   1.47230   1.29475
 1066  H   0.64569
 1067  C   1.07608   0.88856   1.00696   1.04125
 1068  H   0.81030
 1069  C   1.06429   1.01515   0.99293   1.01977
 1070  H   0.85016
 1071  C   1.05461   1.18118   1.03409   1.17636
 1072  H   0.84324
 1073  H   0.84519
 1074  H   0.85351
 1075  C   1.05400   1.06966   1.12038   1.03122
 1076  H   0.84551
 1077  H   0.86081
 1078  C   1.05242   1.08954   1.15717   1.13171
 1079  H   0.84838
 1080  H   0.87833
 1081  H   0.84688
 1082  C   1.08621   0.74308   0.88780   0.74311
 1083  O   1.88691   1.56794   1.57603   1.55634
 1084  N   1.54286   1.50739   1.14410   1.33758
 1085  H   0.64362
 1086  C   1.06249   0.97186   0.88425   1.03775
 1087  H   0.80336
 1088  C   1.07253   1.18092   1.12790   1.02362
 1089  H   0.80909
 1090  H   0.80492
 1091  C   1.06099   0.76140   0.77053   0.82334
 1092  O   1.88007   1.35576   1.56960   1.83575
 1093  N   1.53421   1.29794   1.49518   1.27228
 1094  H   0.67183
 1095  H   0.66494
 1096  C   1.08284   0.88473   0.75916   0.71269
 1097  O   1.88772   1.65433   1.46878   1.58920
 1098  N   1.54002   1.14497   1.19757   1.67195
 1099  H   0.66294
 1100  C   1.08555   0.83744   1.05804   1.08229
 1101  H   0.80376
 1102  C   1.08422   0.99113   0.86698   0.88993
 1103  H   0.84731
 1104  C   1.05382   1.18425   1.18010   1.05442
 1105  H   0.84112
 1106  H   0.82436
 1107  H   0.82926
 1108  O   1.84886   1.59217   1.82289   1.34503
 1109  H   0.64282
 1110  C   1.07339   0.78889   0.75538   0.82410
 1111  O   1.87784   1.28003   1.68918   1.84885
 1112  N   1.53333   1.19349   1.53465   1.21095
 1113  H   0.66699
 1114  C   1.05709   1.15370   1.13334   0.89317
 1115  H   0.83545
 1116  H   0.83784
 1117  H   0.83550
 1118  H   0.83962
 1119  C   1.10509   0.75499   0.73533   0.91353
 1120  O   1.88316   1.71072   1.59643   1.48264
 1121  N   1.54489   1.42820   1.34580   1.20814
 1122  H   0.65344
 1123  C   1.08071   0.93120   1.08426   0.93144
 1124  H   0.81003
 1125  C   1.07313   1.07912   0.95378   0.98254
 1126  H   0.84389
 1127  C   1.05810   1.18711   1.08389   1.12921
 1128  H   0.84354
 1129  H   0.84844
 1130  H   0.85207
 1131  C   1.05414   1.07583   1.13438   1.01862
 1132  H   0.85361
 1133  H   0.85500
 1134  C   1.04917   1.14387   1.15103   1.09049
 1135  H   0.84989
 1136  H   0.85970
 1137  H   0.84937
 1138  C   1.07220   0.84165   0.73685   0.77780
 1139  O   1.87777   1.89030   1.52057   1.39045
 1140  N   1.54460   1.10316   1.52652   1.33525
 1141  H   0.63274
 1142  C   1.06990   0.84579   1.05356   1.03784
 1143  H   0.81799
 1144  C   1.06010   1.09257   1.04632   1.09639
 1145  H   0.83594
 1146  H   0.84651
 1147  C   1.05104   1.08566   1.04443   1.07787
 1148  H   0.84999
 1149  H   0.84470
 1150  C   1.05935   1.08207   1.05477   1.09819
 1151  H   0.84152
 1152  H   0.83223
 1153  C   1.07884   1.02183   0.99735   1.07411
 1154  H   0.81159
 1155  H   0.83346
 1156  N   1.45924   1.23086   1.22915   1.25648
 1157  H   0.69455
 1158  H   0.70040
 1159  H   0.68637
 1160  C   1.07826   0.77985   0.75050   0.82540
 1161  O   1.88116   1.77265   1.69296   1.29066
 1162  N   1.54477   1.32882   1.42531   1.23086
 1163  H   0.64039
 1164  C   1.07017   0.91845   0.95769   1.02907
 1165  H   0.83211
 1166  C   1.06272   1.10006   1.01947   1.13295
 1167  H   0.83512
 1168  H   0.84500
 1169  C   1.05370   1.07068   0.96111   0.96347
 1170  H   0.85962
 1171  C   1.06222   1.16609   1.13936   1.09228
 1172  H   0.85193
 1173  H   0.84926
 1174  H   0.85268
 1175  C   1.05740   1.18266   1.13696   1.08882
 1176  H   0.85352
 1177  H   0.84829
 1178  H   0.85431
 1179  C   1.08433   0.79189   0.79942   0.75953
 1180  O   1.88076   1.63462   1.59925   1.53939
 1181  N   1.54293   1.36499   1.43870   1.16011
 1182  H   0.64565
 1183  C   1.06706   0.91074   0.92847   1.05185
 1184  H   0.82758
 1185  C   1.05943   1.16539   1.08586   1.15251
 1186  H   0.82205
 1187  H   0.83228
 1188  H   0.82755
 1189  C   1.08816   0.78629   0.78592   0.74642
 1190  O   1.87207   1.83972   1.36284   1.59845
 1191  N   1.54580   1.17488   1.32386   1.48949
 1192  H   0.67148
 1193  C   1.07497   0.88717   1.07782   0.92781
 1194  H   0.81720
 1195  C   1.07801   1.14634   1.17639   1.01319
 1196  H   0.80708
 1197  H   0.83352
 1198  C   1.07089   0.73351   0.73704   0.69277
 1199  O   1.88681   1.67732   1.47514   1.68713
 1200  O   1.87135   1.79875   1.44585   1.76269
 1201  C   1.08952   0.81835   0.79585   0.74638
 1202  O   1.88715   1.28511   1.80325   1.57517
 1203  N   1.56638   1.29139   1.17025   1.53755
 1204  H   0.68117
 1205  C   1.07989   1.02163   0.91709   0.95328
 1206  H   0.83939
 1207  C   1.05571   1.07779   1.20248   0.96283
 1208  H   0.81415
 1209  H   0.81923
 1210  C   1.07465   0.97401   0.97763   0.97036
 1211  C   1.09007   1.04117   1.04117   1.01397
 1212  H   0.83950
 1213  C   1.08865   0.98539   1.06187   1.01063
 1214  H   0.84218
 1215  C   1.08754   1.05960   0.99154   1.03195
 1216  H   0.84769
 1217  C   1.08944   1.03701   1.03638   0.98914
 1218  H   0.83150
 1219  C   1.08721   0.98650   1.06381   1.02373
 1220  H   0.83896
 1221  C   1.08885   0.80293   0.77358   0.76397
 1222  O   1.88524   1.44412   1.55945   1.71428
 1223  N   1.53932   1.41483   1.43694   1.13589
 1224  H   0.68424
 1225  C   1.06850   0.98879   1.06764   0.98166
 1226  H   0.81265
 1227  H   0.80734
 1228  C   1.07929   0.82854   0.77931   0.70668
 1229  O   1.87679   1.84125   1.32500   1.61314
 1230  N   1.55749   1.29730   1.23259   1.44619
 1231  H   0.67371
 1232  C   1.07738   0.89822   1.03258   0.96654
 1233  H   0.83476
 1234  C   1.06799   1.11228   0.95112   1.17623
 1235  H   0.83616
 1236  H   0.82992
 1237  C   1.05174   1.03289   0.96151   1.00947
 1238  H   0.86348
 1239  C   1.05600   1.16876   1.06699   1.16398
 1240  H   0.85816
 1241  H   0.84250
 1242  H   0.85611
 1243  C   1.05561   1.17088   1.18821   1.04764
 1244  H   0.84206
 1245  H   0.84214
 1246  H   0.85778
 1247  C   1.09497   0.85716   0.76473   0.72380
 1248  O   1.88109   1.32548   1.78562   1.59452
 1249  N   1.58226   1.28159   1.23422   1.52168
 1250  H   0.66072
 1251  C   1.06824   0.96377   0.99681   0.95526
 1252  H   0.83625
 1253  C   1.05862   1.14012   1.09756   1.17421
 1254  H   0.84418
 1255  H   0.81081
 1256  H   0.81034
 1257  C   1.07600   0.83433   0.75162   0.78119
 1258  O   1.88387   1.50017   1.59995   1.64963
 1259  N   1.54297   1.31116   1.51249   1.14424
 1260  H   0.67591
 1261  C   1.06246   0.92451   1.14574   1.10578
 1262  H   0.82661
 1263  H   0.82985
 1264  H   0.83904
 1265  H   0.84183
 1266  C   1.10457   0.72509   0.79424   0.87712
 1267  O   1.88383   1.53334   1.36208   1.88325
 1268  N   1.54270   1.48706   1.35102   1.14840
 1269  H   0.67722
 1270  C   1.07282   1.11762   0.96732   0.82198
 1271  H   0.80330
 1272  C   1.05792   1.09181   1.02712   1.14956
 1273  H   0.83432
 1274  H   0.82250
 1275  C   1.06419   0.97677   0.94934   0.96740
 1276  C   1.08263   1.01996   0.99367   1.05805
 1277  H   0.84045
 1278  C   1.08205   1.04752   1.02787   0.99898
 1279  H   0.84582
 1280  C   1.08108   1.00744   1.05574   1.02597
 1281  H   0.85045
 1282  C   1.08042   1.02496   1.00378   1.05552
 1283  H   0.85483
 1284  C   1.08326   1.05782   1.02545   0.99533
 1285  H   0.83976
 1286  C   1.08060   0.76585   0.78592   0.79866
 1287  O   1.88387   1.53917   1.68037   1.53366
 1288  N   1.53692   1.17713   1.34798   1.43222
 1289  H   0.67096
 1290  C   1.05820   1.14183   0.97745   0.99743
 1291  H   0.81365
 1292  H   0.78671
 1293  C   1.07320   0.78172   0.75105   0.80221
 1294  O   1.87170   1.55688   1.40052   1.83956
 1295  N   1.53454   1.40613   1.37137   1.17562
 1296  H   0.64793
 1297  C   1.07485   1.00354   1.20094   0.87836
 1298  H   0.80922
 1299  H   0.79328
 1300  C   1.08117   0.77433   0.74572   0.80723
 1301  O   1.88288   1.52185   1.53282   1.73132
 1302  N   1.56520   1.44473   1.16698   1.26723
 1303  C   1.07053   1.06956   0.86745   1.05585
 1304  H   0.83642
 1305  H   0.83934
 1306  C   1.05732   1.04590   1.13943   1.05911
 1307  H   0.84658
 1308  H   0.80389
 1309  C   1.06103   1.08257   0.98315   1.17203
 1310  H   0.83527
 1311  H   0.81960
 1312  C   1.07351   1.05216   1.00127   0.86758
 1313  H   0.81339
 1314  C   1.08829   0.76339   0.76828   0.82867
 1315  O   1.88393   1.42710   1.43566   1.88334
 1316  N   1.54314   1.40353   1.48385   1.11750
 1317  H   0.64352
 1318  C   1.08217   1.04962   1.11405   0.89131
 1319  H   0.80109
 1320  H   0.78755
 1321  C   1.08825   0.82551   0.73034   0.77835
 1322  O   1.88491   1.70329   1.72968   1.32966
 1323  N   1.55104   1.23222   1.41118   1.34475
 1324  H   0.68800
 1325  C   1.07566   0.86022   1.06408   0.97860
 1326  H   0.82214
 1327  C   1.05960   1.16886   1.07556   0.97647
 1328  H   0.83471
 1329  H   0.83907
 1330  C   1.05817   1.13839   1.07470   1.02381
 1331  H   0.82461
 1332  H   0.87166
 1333  C   1.06376   1.08751   1.10003   0.78142
 1334  H   0.85052
 1335  H   0.81928
 1336  N   1.53280   1.62692   1.28989   1.09339
 1337  H   0.64877
 1338  C   0.97597   0.83628   0.80290   0.79452
 1339  N   1.50145   1.56335   1.25854   1.24813
 1340  H   0.67465
 1341  H   0.62641
 1342  N   1.50406   1.55706   1.35352   1.14118
 1343  H   0.64457
 1344  H   0.63726
 1345  C   1.08259   0.75725   0.77384   0.84384
 1346  O   1.88769   1.48040   1.64694   1.56783
 1347  N   1.54266   1.54538   1.19715   1.23969
 1348  H   0.67302
 1349  C   1.08988   1.00048   1.01004   0.92041
 1350  H   0.80166
 1351  C   1.08620   0.93088   0.92667   0.87799
 1352  H   0.85004
 1353  C   1.05851   1.09813   1.12857   1.20506
 1354  H   0.82447
 1355  H   0.83434
 1356  H   0.83078
 1357  O   1.84287   1.58333   1.64101   1.56972
 1358  H   0.62567
 1359  C   1.07894   0.81274   0.79128   0.76253
 1360  O   1.88736   1.53752   1.79158   1.37017
 1361  N   1.55258   1.32714   1.29582   1.37693
 1362  H   0.65254
 1363  C   1.07401   0.98853   0.92742   0.99316
 1364  H   0.81776
 1365  C   1.05787   1.09563   1.06831   1.08720
 1366  H   0.84111
 1367  H   0.82618
 1368  C   1.06136   0.97165   0.97477   1.05736
 1369  C   1.08296   0.97265   1.07978   0.99053
 1370  H   0.84412
 1371  C   1.08168   1.07964   0.99582   1.01756
 1372  H   0.81129
 1373  C   1.06609   0.82719   0.89545   0.91278
 1374  O   1.84144   1.46803   1.53963   1.69587
 1375  H   0.63736
 1376  C   1.07370   0.99025   1.09171   1.07058
 1377  H   0.84751
 1378  C   1.08156   1.06407   0.99917   0.99677
 1379  H   0.85900
 1380  C   1.08213   0.77615   0.73390   0.82112
 1381  O   1.88473   1.39065   1.55649   1.82946
 1382  N   1.55035   1.20073   1.60165   1.14800
 1383  H   0.66087
 1384  C   1.08715   1.11673   1.03455   0.83762
 1385  H   0.82141
 1386  C   1.08251   0.83238   0.89089   1.00022
 1387  H   0.86876
 1388  C   1.05717   1.09849   1.14086   1.18963
 1389  H   0.83067
 1390  H   0.84582
 1391  H   0.84179
 1392  O   1.84702   1.32375   1.76619   1.66667
 1393  H   0.61661
 1394  C   1.08215   0.82838   0.76396   0.79210
 1395  O   1.88734   1.29199   1.70663   1.67693
 1396  N   1.54291   1.22790   1.27112   1.47587
 1397  H   0.64938
 1398  C   1.07063   0.98376   1.04046   1.07612
 1399  H   0.84407
 1400  H   0.80889
 1401  C   1.07030   0.85094   0.72018   0.75162
 1402  O   1.88498   1.70093   1.45763   1.55948
 1403  N   1.55348   1.14730   1.51369   1.33247
 1404  H   0.67995
 1405  C   1.07066   0.82935   0.98745   1.12901
 1406  H   0.81448
 1407  C   1.05320   1.16404   0.98971   1.05188
 1408  H   0.83952
 1409  H   0.83610
 1410  C   1.05981   1.20541   1.01211   1.13838
 1411  H   0.84321
 1412  H   0.82612
 1413  C   1.06684   0.72338   0.72080   0.72867
 1414  O   1.88770   1.47157   1.82248   1.63625
 1415  O   1.88497   1.51846   1.58623   1.81455
 1416  C   1.08677   0.77111   0.86256   0.75456
 1417  O   1.88734   1.64846   1.65301   1.40942
 1418  N   1.54583   1.31033   1.19199   1.47857
 1419  H   0.65322
 1420  C   1.07214   1.06259   0.88118   1.00754
 1421  H   0.84368
 1422  C   1.05447   1.01876   1.03228   0.97094
 1423  H   0.83620
 1424  C   1.05591   1.17739   1.04872   1.19321
 1425  H   0.84545
 1426  H   0.83592
 1427  H   0.83798
 1428  C   1.05457   1.18125   1.16758   1.06146
 1429  H   0.84078
 1430  H   0.83993
 1431  H   0.85201
 1432  C   1.07562   0.77105   0.73156   0.84215
 1433  O   1.88366   1.36378   1.63759   1.76946
 1434  N   1.53825   1.27314   1.47280   1.21103
 1435  H   0.66891
 1436  C   1.07708   1.00711   1.05455   0.86794
 1437  H   0.82282
 1438  C   1.06061   1.02671   1.01603   0.97680
 1439  H   0.84050
 1440  C   1.05417   1.18407   1.09807   1.12132
 1441  H   0.84120
 1442  H   0.84079
 1443  H   0.85075
 1444  C   1.05740   1.18955   1.16690   1.05262
 1445  H   0.84587
 1446  H   0.83570
 1447  H   0.83888
 1448  C   1.08142   0.80668   0.78617   0.75095
 1449  O   1.88310   1.81185   1.47389   1.46066
 1450  N   1.53600   1.23679   1.43122   1.31657
 1451  H   0.66425
 1452  C   1.07957   0.90428   0.96830   1.14817
 1453  H   0.80530
 1454  C   1.07973   0.93535   0.82445   0.98328
 1455  H   0.86641
 1456  C   1.05744   1.09503   1.13581   1.19616
 1457  H   0.82492
 1458  H   0.82225
 1459  H   0.84132
 1460  O   1.84757   1.47770   1.49406   1.78190
 1461  H   0.64883
 1462  C   1.07067   0.75402   0.82644   0.79813
 1463  O   1.88061   1.50661   1.88249   1.36375
 1464  N   1.53716   1.55062   1.12174   1.29445
 1465  H   0.65722
 1466  C   1.05406   1.16764   0.87310   1.13556
 1467  H   0.83031
 1468  H   0.83716
 1469  H   0.85145
 1470  H   0.82729
 1471  C   1.10847   0.72191   0.77567   0.90301
 1472  O   1.87917   1.50032   1.39723   1.89104
 1473  N   1.54805   1.50779   1.35866   1.13683
 1474  H   0.67047
 1475  C   1.07820   1.08307   1.04074   0.80193
 1476  H   0.80369
 1477  C   1.05902   1.13428   0.99965   1.10167
 1478  H   0.81855
 1479  H   0.82216
 1480  C   1.06604   0.97582   0.99266   1.00496
 1481  C   1.08223   0.99076   1.02513   1.00497
 1482  H   0.83758
 1483  C   1.07635   1.10500   1.04971   1.06613
 1484  H   0.82048
 1485  C   1.07249   0.88654   0.88223   0.88009
 1486  O   1.83869   1.35495   1.61297   1.73279
 1487  H   0.61922
 1488  C   1.07859   0.98854   1.09945   1.09650
 1489  H   0.82131
 1490  C   1.08812   1.07868   0.97902   0.96931
 1491  H   0.83504
 1492  C   1.08085   0.79997   0.76890   0.79198
 1493  O   1.88630   1.81389   1.69948   1.28038
 1494  N   1.53472   1.25586   1.50894   1.18459
 1495  H   0.67088
 1496  C   1.06144   0.92032   1.08952   1.16675
 1497  H   0.83445
 1498  H   0.82974
 1499  H   0.83852
 1500  H   0.82495
 1501  C   1.10799   0.78630   0.88384   0.71625
 1502  O   1.88013   1.43037   1.87072   1.50909
 1503  N   1.55065   1.37513   1.18535   1.44527
 1504  H   0.64431
 1505  C   1.07867   0.96568   0.86315   1.12892
 1506  H   0.81510
 1507  C   1.05974   0.97989   0.99671   1.07644
 1508  H   0.84633
 1509  C   1.05205   1.15824   1.06259   1.17603
 1510  H   0.84457
 1511  H   0.84461
 1512  H   0.84171
 1513  C   1.04780   0.99993   1.12970   1.08502
 1514  H   0.86673
 1515  H   0.85350
 1516  C   1.04900   1.11605   1.12961   1.14943
 1517  H   0.85872
 1518  H   0.85752
 1519  H   0.84111
 1520  C   1.07238   0.85963   0.73792   0.75019
 1521  O   1.87626   1.57617   1.55613   1.67375
 1522  N   1.54215   1.18494   1.41746   1.37454
 1523  H   0.66205
 1524  C   1.07135   0.87894   1.16321   1.10821
 1525  H   0.84322
 1526  H   0.83229
 1527  H   0.83427
 1528  H   0.82779
 1529  C   1.10747   0.84818   0.73332   0.82090
 1530  O   1.88533   1.81646   1.62642   1.36680
 1531  N   1.53775   1.25346   1.40297   1.30525
 1532  H   0.64789
 1533  C   1.05918   0.89144   1.04091   1.02441
 1534  H   0.81943
 1535  C   1.06062   1.03212   1.11499   1.11418
 1536  H   0.82485
 1537  H   0.84741
 1538  C   1.04447   0.99040   0.96307   1.06040
 1539  H   0.87990
 1540  C   1.05446   1.16236   1.06821   1.18058
 1541  H   0.83888
 1542  H   0.84800
 1543  H   0.85374
 1544  C   1.05253   1.12351   1.17281   1.10788
 1545  H   0.85730
 1546  H   0.84705
 1547  H   0.84152
 1548  C   1.07843   0.72955   0.86440   0.77481
 1549  O   1.88174   1.57717   1.45175   1.73561
 1550  N   1.54010   1.57171   1.21321   1.19363
 1551  H   0.66032
 1552  C   1.07170   1.02172   0.93422   0.96026
 1553  H   0.81206
 1554  C   1.05668   1.17022   1.07933   0.99297
 1555  H   0.82469
 1556  H   0.82639
 1557  C   1.05681   1.12984   1.08828   1.03614
 1558  H   0.85360
 1559  H   0.82383
 1560  C   1.06367   1.15814   0.94512   0.90239
 1561  H   0.81569
 1562  H   0.83639
 1563  N   1.52412   1.16124   1.42462   1.39830
 1564  H   0.63937
 1565  C   0.99153   0.79153   0.81259   0.81871
 1566  N   1.51737   1.11697   1.46805   1.48668
 1567  H   0.65525
 1568  H   0.63905
 1569  N   1.50861   1.25115   1.39996   1.41130
 1570  H   0.64168
 1571  H   0.64061
 1572  C   1.08221   0.87365   0.77345   0.74744
 1573  O   1.88837   1.60499   1.59491   1.52060
 1574  N   1.53997   1.17422   1.27251   1.51852
 1575  H   0.65802
 1576  C   1.07424   0.85745   1.08551   1.03743
 1577  H   0.82143
 1578  C   1.06138   1.16405   1.09785   0.98438
 1579  H   0.84248
 1580  H   0.83837
 1581  C   1.04758   1.08156   0.95985   0.94847
 1582  H   0.86924
 1583  C   1.05589   1.17155   1.16292   1.07761
 1584  H   0.85396
 1585  H   0.86084
 1586  H   0.84729
 1587  C   1.05673   1.15719   1.09313   1.15815
 1588  H   0.85008
 1589  H   0.86054
 1590  H   0.84767
 1591  C   1.08313   0.71426   0.76150   0.70253
 1592  O   1.88390   1.46811   1.86979   1.62378
 1593  O   1.88756   1.54747   1.59460   1.80332

 **********************
 *                    *
 * JOB ENDED NORMALLY *
 *                    *
 **********************



 TOTAL JOB TIME:            39.96 SECONDS

 == MOPAC DONE ==
