 *******************************************************************************
 **                                                                           **
 **                              MOPAC v23.2.2                                **
 **                                                                           **
 *******************************************************************************
 **          Digital Object Identifier (DOI): 10.5281/zenodo.6511958          **
 **    Visit the DOI location for information on how to cite this program.    **
 *******************************************************************************

                              PM7 CALCULATION RESULTS

 *******************************************************************************
 *  CALCULATION DONE: (MAX THREADS = 12)             Tue Jan 27 16:05:55 2026  *
 *  PM7        - The PM7 Hamiltonian to be used
 *  MOZYME     - USE LOCALIZED M.O.s IN SOLVING THE SCF EQUATIONS
 *
 *
 *
 *                 CHARGE ON SYSTEM = +2
 *
 *
 *
 *  EPS=78.4   - USE ANDREAS KLAMT'S COSMO IMPLICIT SOLVATION MODEL
 *  1SCF       - DO 1 SCF AND THEN STOP 
 *  T=         - A TIME OF 172800.0 SECONDS REQUESTED
 *  DUMP=N     - RESTART FILE WRITTEN EVERY 7200.0 SECONDS REQUESTED
 *******************************************************************************
PM7 1SCF MOZYME CHARGE=2 EPS=78.4


   ATOM   CHEMICAL          X               Y               Z
  NUMBER   SYMBOL      (ANGSTROMS)     (ANGSTROMS)     (ANGSTROMS)

     1       H         71.69100000  *  165.23700000  * -45.36000000  *
     2       C         70.72700000  *  165.64400000  * -45.02500000  *
     3       O         70.67100000  *  166.69300000  * -44.40000000  *
     4       N         69.64800000  *  164.94600000  * -45.35400000  *
     5       H         69.74300000  *  164.08600000  * -45.86500000  *
     6       C         68.31800000  *  165.37700000  * -44.95100000  *
     7       H         68.30400000  *  166.44500000  * -44.75000000  *
     8       C         67.27900000  *  165.08100000  * -46.05800000  *
     9       H         67.27200000  *  164.02200000  * -46.29800000  *
    10       C         65.89200000  *  165.46600000  * -45.59200000  *
    11       H         65.46400000  *  166.22900000  * -46.24500000  *
    12       H         65.23700000  *  164.60600000  * -45.62700000  *
    13       H         65.87600000  *  165.89500000  * -44.58400000  *
    14       C         67.63700000  *  165.85600000  * -47.31700000  *
    15       H         68.59400000  *  165.52900000  * -47.70800000  *
    16       H         66.87900000  *  165.66900000  * -48.07700000  *
    17       H         67.68800000  *  166.92100000  * -47.10100000  *
    18       C         67.91500000  *  164.66400000  * -43.65700000  *
    19       O         67.55300000  *  165.30600000  * -42.67600000  *
    20       N         67.98400000  *  163.33800000  * -43.65800000  *
    21       H         68.28400000  *  162.85200000  * -44.48600000  *
    22       C         67.62300000  *  162.54400000  * -42.48700000  *
    23       H         67.90600000  *  163.07600000  * -41.58100000  *
    24       C         66.12800000  *  162.23500000  * -42.45900000  *
    25       H         65.92600000  *  161.47400000  * -43.20900000  *
    26       H         65.88500000  *  161.80700000  * -41.48800000  *
    27       C         65.21300000  *  163.39800000  * -42.74000000  *
    28       H         65.33100000  *  164.15700000  * -41.96400000  *
    29       H         65.45900000  *  163.81400000  * -43.69700000  *
    30       C         63.76600000  *  162.97200000  * -42.82400000  *
    31       O         63.44700000  *  162.11400000  * -43.67900000  *
    32       O         62.94800000  *  163.49400000  * -42.03400000  *
    33       C         68.34700000  *  161.22200000  * -42.57700000  *
    34       O         68.73000000  *  160.78800000  * -43.66100000  *
    35       N         68.52400000  *  160.57500000  * -41.43500000  *
    36       H         68.03000000  *  160.89100000  * -40.60600000  *
    37       C         69.17300000  *  159.28200000  * -41.42100000  *
    38       H         69.95100000  *  159.22100000  * -42.17800000  *
    39       C         69.75600000  *  159.01000000  * -40.03200000  *
    40       H         70.21900000  *  159.94300000  * -39.71800000  *
    41       H         68.96300000  *  158.79100000  * -39.31600000  *
    42       C         70.79800000  *  157.89600000  * -39.98300000  *
    43       H         70.31100000  *  156.94100000  * -40.17400000  *
    44       H         71.53800000  *  158.07300000  * -40.76900000  *
    45       C         71.50100000  *  157.83200000  * -38.61800000  *
    46       H         70.74900000  *  157.59000000  * -37.86000000  *
    47       H         72.23100000  *  157.01800000  * -38.63800000  *
    48       C         72.18600000  *  159.16200000  * -38.26900000  *
    49       H         72.83200000  *  159.42500000  * -39.10900000  *
    50       H         71.41200000  *  159.93100000  * -38.15600000  *
    51       N         73.00000000  *  159.10500000  * -37.02500000  *
    52       H         73.70000000  *  158.37000000  * -37.07400000  *
    53       H         73.43800000  *  159.98800000  * -36.79300000  *
    54       H         72.39100000  *  158.85400000  * -36.25100000  *
    55       C         68.06200000  *  158.28700000  * -41.74800000  *
    56       O         67.16300000  *  158.08100000  * -40.94600000  *
    57       N         68.06900000  *  157.75200000  * -42.96900000  *
    58       H         68.88000000  *  157.93200000  * -43.54000000  *
    59       C         67.10000000  *  156.75500000  * -43.45200000  *
    60       H         66.11000000  *  157.21500000  * -43.47600000  *
    61       C         67.47000000  *  156.30800000  * -44.88600000  *
    62       H         68.54900000  *  156.38900000  * -45.01100000  *
    63       C         67.09000000  *  154.86000000  * -45.20500000  *
    64       H         66.04000000  *  154.68300000  * -44.98100000  *
    65       H         67.29400000  *  154.66300000  * -46.25200000  *
    66       H         67.69700000  *  154.17200000  * -44.62100000  *
    67       C         66.80700000  *  157.26600000  * -45.88600000  *
    68       H         65.72600000  *  157.13600000  * -45.85700000  *
    69       H         67.02900000  *  158.27200000  * -45.54900000  *
    70       C         67.29500000  *  157.11200000  * -47.33400000  *
    71       H         66.88800000  *  156.20900000  * -47.78200000  *
    72       H         66.96300000  *  157.96300000  * -47.92400000  *
    73       H         68.38100000  *  157.06800000  * -47.36500000  *
    74       C         66.99800000  *  155.57700000  * -42.48600000  *
    75       O         65.89700000  *  155.17700000  * -42.10200000  *
    76       N         68.14500000  *  155.01500000  * -42.10600000  *
    77       H         69.02400000  *  155.39000000  * -42.44600000  *
    78       C         68.18100000  *  153.84300000  * -41.25100000  *
    79       H         67.74800000  *  154.10200000  * -40.28400000  *
    80       H         67.57700000  *  153.05300000  * -41.69700000  *
    81       C         69.58000000  *  153.29900000  * -41.01500000  *
    82       O         70.58700000  *  153.78000000  * -41.54200000  *
    83       N         69.60400000  *  152.27100000  * -40.18300000  *
    84       H         68.72000000  *  151.92800000  * -39.83300000  *
    85       C         70.80300000  *  151.68400000  * -39.60800000  *
    86       H         71.65200000  *  152.34900000  * -39.77300000  *
    87       C         70.58400000  *  151.55400000  * -38.09200000  *
    88       H         69.74400000  *  150.88700000  * -37.89800000  *
    89       H         71.48500000  *  151.13600000  * -37.66200000  *
    90       C         70.33100000  *  152.91500000  * -37.41700000  *
    91       H         71.16600000  *  153.58100000  * -37.64900000  *
    92       H         69.42600000  *  153.36800000  * -37.82700000  *
    93       C         70.16400000  *  152.79300000  * -35.89500000  *
    94       O         69.26100000  *  152.05800000  * -35.43200000  *
    95       O         70.90100000  *  153.47600000  * -35.14800000  *
    96       C         71.08700000  *  150.35500000  * -40.32500000  *
    97       O         70.43900000  *  149.33700000  * -40.06800000  *
    98       N         71.95900000  *  150.41300000  * -41.33600000  *
    99       H         72.51900000  *  151.24900000  * -41.44900000  *
   100       C         72.05200000  *  149.40800000  * -42.39600000  *
   101       H         71.04700000  *  149.08900000  * -42.67000000  *
   102       H         72.49700000  *  149.88300000  * -43.27100000  *
   103       C         72.87300000  *  148.15700000  * -42.06500000  *
   104       O         73.36000000  *  147.95800000  * -40.95500000  *
   105       N         73.06100000  *  147.31400000  * -43.08300000  *
   106       H         72.60900000  *  147.52100000  * -43.96500000  *
   107       C         73.86800000  *  146.07600000  * -43.05400000  *
   108       H         73.61000000  *  145.49900000  * -42.16500000  *
   109       C         73.54900000  *  145.22100000  * -44.29300000  *
   110       H         74.29000000  *  144.42800000  * -44.40300000  *
   111       C         72.16700000  *  144.58800000  * -44.19100000  *
   112       H         71.39700000  *  145.35900000  * -44.13700000  *
   113       H         71.99600000  *  143.96200000  * -45.06600000  *
   114       H         72.13500000  *  143.95800000  * -43.30300000  *
   115       O         73.57000000  *  146.05100000  * -45.42800000  *
   116       H         73.10900000  *  145.58400000  * -46.16300000  *
   117       C         75.38300000  *  146.30400000  * -43.02100000  *
   118       O         76.09200000  *  145.47200000  * -42.46200000  *
   119       N         75.86700000  *  147.42300000  * -43.57800000  *
   120       H         75.20000000  *  147.99500000  * -44.07000000  *
   121       C         77.29900000  *  147.74300000  * -43.75100000  *
   122       H         77.90100000  *  147.07200000  * -43.13600000  *
   123       C         77.69400000  *  147.52400000  * -45.22400000  *
   124       H         77.08800000  *  148.17200000  * -45.85800000  *
   125       H         78.73600000  *  147.81300000  * -45.36200000  *
   126       C         77.57300000  *  146.09700000  * -45.70200000  *
   127       C         78.54500000  *  145.16100000  * -45.31000000  *
   128       H         79.38500000  *  145.47200000  * -44.70000000  *
   129       C         78.41300000  *  143.81700000  * -45.69000000  *
   130       H         79.15700000  *  143.10500000  * -45.37200000  *
   131       C         77.30200000  *  143.40800000  * -46.46000000  *
   132       O         77.13300000  *  142.09800000  * -46.76100000  *
   133       H         77.68100000  *  141.55100000  * -46.16800000  *
   134       C         76.34800000  *  144.35400000  * -46.88400000  *
   135       H         75.49200000  *  144.03900000  * -47.46100000  *
   136       C         76.49300000  *  145.70200000  * -46.51300000  *
   137       H         75.75300000  *  146.42600000  * -46.82200000  *
   138       C         77.69000000  *  149.17600000  * -43.34500000  *
   139       O         78.82900000  *  149.58000000  * -43.57000000  *
   140       N         76.77500000  *  149.96300000  * -42.77300000  *
   141       H         75.86900000  *  149.58400000  * -42.54100000  *
   142       C         77.00000000  *  151.37800000  * -42.46100000  *
   143       H         77.55300000  *  151.46300000  * -41.52900000  *
   144       H         77.60600000  *  151.82200000  * -43.24200000  *
   145       C         75.69500000  *  152.16300000  * -42.32800000  *
   146       O         74.63500000  *  151.56700000  * -42.11800000  *
   147       N         75.75500000  *  153.49500000  * -42.44900000  *
   148       H         76.58800000  *  153.89400000  * -42.85900000  *
   149       C         74.59200000  *  154.32600000  * -42.21200000  *
   150       H         73.82600000  *  153.78000000  * -41.65800000  *
   151       C         74.95900000  *  155.54800000  * -41.37000000  *
   152       H         75.70700000  *  156.13900000  * -41.89300000  *
   153       C         73.73100000  *  156.40900000  * -41.13300000  *
   154       H         72.94300000  *  155.80300000  * -40.68200000  *
   155       H         73.98600000  *  157.21200000  * -40.45000000  *
   156       H         73.36800000  *  156.84900000  * -42.06500000  *
   157       C         75.54500000  *  155.09600000  * -40.05300000  *
   158       H         76.46000000  *  154.52800000  * -40.19800000  *
   159       H         75.77700000  *  155.95300000  * -39.42300000  *
   160       H         74.80500000  *  154.48400000  * -39.53200000  *
   161       C         74.01900000  *  154.79200000  * -43.53700000  *
   162       O         74.76100000  *  155.18400000  * -44.43700000  *
   163       N         72.69900000  *  154.65600000  * -43.67400000  *
   164       H         72.15900000  *  154.32400000  * -42.88100000  *
   165       C         71.94700000  *  155.12100000  * -44.83900000  *
   166       H         72.62900000  *  155.20500000  * -45.68200000  *
   167       C         70.82300000  *  154.14800000  * -45.24100000  *
   168       H         69.98000000  *  154.26900000  * -44.56300000  *
   169       C         70.36400000  *  154.46900000  * -46.67000000  *
   170       H         71.18700000  *  154.33600000  * -47.37100000  *
   171       H         69.54800000  *  153.80700000  * -46.95600000  *
   172       H         70.01200000  *  155.49600000  * -46.73600000  *
   173       C         71.26400000  *  152.68200000  * -45.17300000  *
   174       H         72.21900000  *  152.57000000  * -45.67400000  *
   175       H         71.36300000  *  152.37500000  * -44.13100000  *
   176       H         70.51900000  *  152.04300000  * -45.64700000  *
   177       C         71.36700000  *  156.49300000  * -44.53000000  *
   178       O         70.64900000  *  156.64000000  * -43.53700000  *
   179       N         71.62500000  *  157.49000000  * -45.37400000  *
   180       H         72.23900000  *  157.32200000  * -46.16900000  *
   181       C         71.01800000  *  158.79600000  * -45.21900000  *
   182       H         70.37900000  *  158.84300000  * -44.33800000  *
   183       C         72.10000000  *  159.86100000  * -45.06900000  *
   184       H         72.79900000  *  159.78100000  * -45.90500000  *
   185       H         71.63400000  *  160.84400000  * -45.14300000  *
   186       C         72.87100000  *  159.84300000  * -43.76800000  *
   187       C         72.34700000  *  160.43100000  * -42.61900000  *
   188       H         71.37700000  *  160.90600000  * -42.66800000  *
   189       C         73.06400000  *  160.45200000  * -41.42500000  *
   190       H         72.63300000  *  160.94600000  * -40.56800000  *
   191       C         74.33000000  *  159.87400000  * -41.37100000  *
   192       O         75.04700000  *  159.90100000  * -40.18700000  *
   193       H         74.69700000  *  160.54100000  * -39.56800000  *
   194       C         74.87500000  *  159.27800000  * -42.50300000  *
   195       H         75.78500000  *  158.71900000  * -42.41900000  *
   196       C         74.14000000  *  159.26700000  * -43.69600000  *
   197       H         74.51800000  *  158.73300000  * -44.56500000  *
   198       C         70.16700000  *  159.17400000  * -46.42900000  *
   199       O         70.41800000  *  158.72400000  * -47.55600000  *
   200       N         69.02400000  *  159.82600000  * -46.20900000  *
   201       H         68.83500000  *  160.12600000  * -45.25900000  *
   202       C         68.29800000  *  160.51900000  * -47.27500000  *
   203       H         68.27600000  *  159.91800000  * -48.18600000  *
   204       C         66.86100000  *  160.87900000  * -46.84100000  *
   205       H         66.31900000  *  159.97200000  * -46.59100000  *
   206       H         66.89300000  *  161.51100000  * -45.95200000  *
   207       C         66.06800000  *  161.59200000  * -47.94900000  *
   208       H         66.55400000  *  162.53500000  * -48.20600000  *
   209       H         66.04600000  *  160.95700000  * -48.83500000  *
   210       C         64.63000000  *  161.87600000  * -47.48400000  *
   211       H         64.16800000  *  160.94700000  * -47.14500000  *
   212       H         64.65800000  *  162.57400000  * -46.64700000  *
   213       C         63.79500000  *  162.46600000  * -48.62900000  *
   214       H         64.31700000  *  163.34100000  * -49.02900000  *
   215       H         63.72700000  *  161.71800000  * -49.42700000  *
   216       N         62.43200000  *  162.85500000  * -48.17800000  *
   217       H         62.46900000  *  163.56800000  * -47.46200000  *
   218       H         61.88700000  *  163.23200000  * -48.94200000  *
   219       H         61.92500000  *  162.06800000  * -47.79900000  *
   220       C         69.12500000  *  161.75900000  * -47.50300000  *
   221       O         69.37800000  *  162.48400000  * -46.54300000  *
   222       N         69.55500000  *  162.00600000  * -48.72500000  *
   223       H         69.34400000  *  161.34200000  * -49.46700000  *
   224       C         70.34900000  *  163.18200000  * -49.01700000  *
   225       H         70.22500000  *  163.93500000  * -48.24000000  *
   226       C         71.81400000  *  162.79200000  * -49.07000000  *
   227       H         71.97800000  *  162.06700000  * -49.86400000  *
   228       H         72.42900000  *  163.67700000  * -49.23900000  *
   229       H         72.10500000  *  162.33200000  * -48.12600000  *
   230       C         69.94400000  *  163.83800000  * -50.32200000  *
   231       O         69.22100000  *  163.25100000  * -51.12800000  *
   232       N         70.40700000  *  165.06400000  * -50.52400000  *
   233       H         70.93200000  *  165.53000000  * -49.79600000  *
   234       C         70.10800000  *  165.77900000  * -51.74600000  *
   235       H         69.54100000  *  165.15900000  * -52.44400000  *
   236       H         69.52200000  *  166.69100000  * -51.53000000  *
   237       H         71.05900000  *  166.04700000  * -52.23900000  *
   238       H         68.08600000  *  164.80700000  * -56.55000000  *
   239       C         68.21200000  *  164.39600000  * -55.53600000  *
   240       O         69.28600000  *  164.50800000  * -54.94200000  *
   241       N         67.13500000  *  163.82300000  * -55.01100000  *
   242       H         66.34000000  *  163.66800000  * -55.61500000  *
   243       C         67.13600000  *  163.21200000  * -53.68800000  *
   244       H         67.86300000  *  163.70700000  * -53.05000000  *
   245       C         65.75500000  *  163.32300000  * -53.02900000  *
   246       H         64.97700000  *  163.06900000  * -53.75000000  *
   247       C         65.64800000  *  162.36600000  * -51.85200000  *
   248       H         66.47200000  *  162.51800000  * -51.15200000  *
   249       H         64.69700000  *  162.53800000  * -51.34700000  *
   250       H         65.65200000  *  161.33900000  * -52.20000000  *
   251       C         65.54000000  *  164.75000000  * -52.56600000  *
   252       H         65.62600000  *  165.42400000  * -53.41600000  *
   253       H         64.53500000  *  164.85100000  * -52.15900000  *
   254       H         66.28400000  *  165.00300000  * -51.81000000  *
   255       C         67.52600000  *  161.76000000  * -53.84700000  *
   256       O         66.97900000  *  161.02800000  * -54.68200000  *
   257       N         68.49600000  *  161.34900000  * -53.04800000  *
   258       H         68.91100000  *  161.99700000  * -52.39100000  *
   259       C         69.01100000  *  159.99200000  * -53.10200000  *
   260       H         68.34600000  *  159.34100000  * -53.67900000  *
   261       C         70.37400000  *  159.97400000  * -53.81600000  *
   262       H         70.77500000  *  158.96500000  * -53.87500000  *
   263       C         70.21400000  *  160.50700000  * -55.21300000  *
   264       H         69.95700000  *  161.56600000  * -55.19000000  *
   265       H         71.15100000  *  160.39100000  * -55.75600000  *
   266       H         69.44200000  *  159.95000000  * -55.73600000  *
   267       C         71.37900000  *  160.85000000  * -53.05700000  *
   268       H         71.56500000  *  160.44500000  * -52.06400000  *
   269       H         72.31500000  *  160.84900000  * -53.61300000  *
   270       H         71.03600000  *  161.88400000  * -52.98400000  *
   271       C         69.19200000  *  159.37200000  * -51.72900000  *
   272       O         69.02000000  *  160.03600000  * -50.68600000  *
   273       N         69.39000000  *  158.06000000  * -51.70900000  *
   274       H         69.46800000  *  157.57000000  * -52.59600000  *
   275       C         69.75900000  *  157.31700000  * -50.52000000  *
   276       H         69.47300000  *  157.87200000  * -49.62900000  *
   277       C         69.00000000  *  155.99700000  * -50.50500000  *
   278       H         69.21900000  *  155.44100000  * -51.41500000  *
   279       H         69.29700000  *  155.40800000  * -49.63700000  *
   280       H         67.93100000  *  156.19900000  * -50.45300000  *
   281       C         71.27800000  *  157.13800000  * -50.53800000  *
   282       O         71.81600000  *  156.45600000  * -51.41700000  *
   283       N         71.97000000  *  157.79100000  * -49.60300000  *
   284       H         71.44500000  *  158.28300000  * -48.88900000  *
   285       C         73.41300000  *  157.73400000  * -49.53500000  *
   286       H         73.80300000  *  157.43200000  * -50.50200000  *
   287       C         73.96100000  *  159.11400000  * -49.18200000  *
   288       H         73.49200000  *  159.84000000  * -49.85100000  *
   289       H         73.62800000  *  159.35800000  * -48.16900000  *
   290       C         75.47300000  *  159.31600000  * -49.26600000  *
   291       H         75.96900000  *  158.63700000  * -48.57100000  *
   292       C         75.94900000  *  159.02000000  * -50.68400000  *
   293       H         75.44100000  *  159.71800000  * -51.34800000  *
   294       H         77.02400000  *  159.18800000  * -50.76300000  *
   295       H         75.74700000  *  157.98700000  * -50.96800000  *
   296       C         75.80400000  *  160.74000000  * -48.87900000  *
   297       H         75.43700000  *  160.94600000  * -47.87600000  *
   298       H         76.88200000  *  160.87900000  * -48.92200000  *
   299       H         75.32000000  *  161.42900000  * -49.57600000  *
   300       C         73.82100000  *  156.71600000  * -48.48500000  *
   301       O         73.39600000  *  156.78100000  * -47.33400000  *
   302       N         74.64300000  *  155.75000000  * -48.88700000  *
   303       H         74.88100000  *  155.73100000  * -49.87600000  *
   304       C         75.13600000  *  154.63800000  * -48.06500000  *
   305       H         74.61500000  *  154.61100000  * -47.10600000  *
   306       C         74.86800000  *  153.33100000  * -48.84600000  *
   307       H         74.43500000  *  153.57700000  * -49.81600000  *
   308       H         75.80400000  *  152.80500000  * -49.04200000  *
   309       C         73.89600000  *  152.35300000  * -48.18800000  *
   310       H         73.03500000  *  152.89600000  * -47.80000000  *
   311       H         73.54200000  *  151.68800000  * -48.97500000  *
   312       C         74.56000000  *  151.52200000  * -47.07500000  *
   313       H         75.54200000  *  151.17600000  * -47.40400000  *
   314       H         74.70600000  *  152.15600000  * -46.19700000  *
   315       C         73.70700000  *  150.30200000  * -46.68700000  *
   316       H         74.16300000  *  149.82900000  * -45.81100000  *
   317       H         72.70900000  *  150.64500000  * -46.39300000  *
   318       N         73.60200000  *  149.31700000  * -47.80100000  *
   319       H         74.50600000  *  148.96300000  * -48.08700000  *
   320       H         73.02600000  *  148.50600000  * -47.54200000  *
   321       H         73.15000000  *  149.72400000  * -48.61100000  *
   322       C         76.62600000  *  154.85000000  * -47.79900000  *
   323       O         77.41900000  *  154.68600000  * -48.71700000  *
   324       N         77.01700000  *  155.22600000  * -46.58100000  *
   325       H         76.29800000  *  155.26800000  * -45.86500000  *
   326       C         78.42200000  *  155.28900000  * -46.15900000  *
   327       H         79.06600000  *  155.59300000  * -46.98900000  *
   328       C         78.56700000  *  156.26000000  * -44.97900000  *
   329       H         78.02700000  *  155.87500000  * -44.10900000  *
   330       H         79.62500000  *  156.33900000  * -44.73000000  *
   331       C         78.01500000  *  157.64300000  * -45.34000000  *
   332       H         78.45100000  *  157.95800000  * -46.27300000  *
   333       H         76.93600000  *  157.57500000  * -45.50000000  *
   334       C         78.25100000  *  158.72500000  * -44.27900000  *
   335       H         77.97800000  *  159.68000000  * -44.73200000  *
   336       H         77.56000000  *  158.53300000  * -43.46900000  *
   337       C         79.67700000  *  158.85000000  * -43.70900000  *
   338       H         80.38400000  *  158.36300000  * -44.39700000  *
   339       H         79.95000000  *  159.91100000  * -43.68600000  *
   340       N         79.78800000  *  158.26900000  * -42.33500000  *
   341       H         79.63700000  *  157.26100000  * -42.37000000  *
   342       H         80.69600000  *  158.42600000  * -41.93200000  *
   343       H         79.10400000  *  158.64600000  * -41.70100000  *
   344       C         78.82300000  *  153.89100000  * -45.72900000  *
   345       O         78.09100000  *  153.31500000  * -44.93700000  *
   346       N         79.90700000  *  153.32000000  * -46.24700000  *
   347       H         80.40500000  *  153.76400000  * -47.01000000  *
   348       C         80.34300000  *  152.02200000  * -45.76800000  *
   349       H         79.49500000  *  151.49800000  * -45.35900000  *
   350       C         80.94400000  *  151.18600000  * -46.89500000  *
   351       H         81.78600000  *  151.78200000  * -47.16900000  *
   352       C         81.42400000  *  149.85200000  * -46.34500000  *
   353       H         80.65600000  *  149.35200000  * -45.75200000  *
   354       H         81.67900000  *  149.19900000  * -47.17900000  *
   355       H         82.34500000  *  149.95700000  * -45.76100000  *
   356       C         79.89700000  *  150.97600000  * -47.99700000  *
   357       H         79.60200000  *  151.87000000  * -48.50000000  *
   358       H         80.28300000  *  150.30500000  * -48.75000000  *
   359       C         78.59100000  *  150.36100000  * -47.52600000  *
   360       H         78.17700000  *  150.90100000  * -46.69000000  *
   361       H         77.89400000  *  150.33700000  * -48.36300000  *
   362       H         78.77100000  *  149.33300000  * -47.20900000  *
   363       C         81.33300000  *  152.07100000  * -44.61400000  *
   364       O         82.16700000  *  152.98000000  * -44.51900000  *
   365       N         81.21100000  *  151.07100000  * -43.74300000  *
   366       H         80.50300000  *  150.36100000  * -43.92800000  *
   367       C         82.04400000  *  150.90200000  * -42.55200000  *
   368       H         81.47500000  *  151.18100000  * -41.66300000  *
   369       H         82.35800000  *  149.86100000  * -42.45900000  *
   370       H         82.94700000  *  151.51400000  * -42.62000000  *
   371       H         81.25700000  *  144.04600000  * -57.89900000  *
   372       C         80.50000000  *  144.84100000  * -57.88800000  *
   373       O         79.71500000  *  144.99000000  * -58.82400000  *
   374       N         80.49900000  *  145.60300000  * -56.79700000  *
   375       H         81.28000000  *  145.52500000  * -56.16600000  *
   376       C         79.57000000  *  146.70600000  * -56.61200000  *
   377       H         78.57500000  *  146.34400000  * -56.42300000  *
   378       C         80.00500000  *  147.61000000  * -55.44200000  *
   379       H         80.89800000  *  148.18000000  * -55.68500000  *
   380       C         78.90600000  *  148.60800000  * -55.12500000  *
   381       H         77.92000000  *  148.14100000  * -55.17600000  *
   382       H         79.04500000  *  148.98700000  * -54.11600000  *
   383       H         78.93800000  *  149.43600000  * -55.83300000  *
   384       C         80.32100000  *  146.76200000  * -54.20900000  *
   385       H         81.19200000  *  146.13400000  * -54.40600000  *
   386       H         80.59400000  *  147.42200000  * -53.38900000  *
   387       C         79.18400000  *  145.87900000  * -53.76500000  *
   388       H         78.77800000  *  145.31100000  * -54.59400000  *
   389       H         79.50900000  *  145.12200000  * -53.06500000  *
   390       H         78.38800000  *  146.48300000  * -53.33500000  *
   391       C         79.54300000  *  147.54500000  * -57.87900000  *
   392       O         78.48200000  *  147.77900000  * -58.45100000  *
   393       N         80.72300000  *  147.98900000  * -58.30900000  *
   394       H         81.55800000  *  147.70100000  * -57.81200000  *
   395       C         80.85900000  *  148.80400000  * -59.51100000  *
   396       H         80.33900000  *  149.74600000  * -59.38600000  *
   397       H         81.92800000  *  148.98500000  * -59.72900000  *
   398       H         80.37800000  *  148.32200000  * -60.38100000  *
   399       H         78.96400000  *  146.08700000  * -61.65600000  *
   400       C         77.87300000  *  146.08700000  * -61.51600000  *
   401       O         77.11500000  *  145.89500000  * -62.46400000  *
   402       N         77.44600000  *  146.31800000  * -60.28000000  *
   403       H         78.13400000  *  146.42500000  * -59.54900000  *
   404       C         76.02800000  *  146.35200000  * -59.94500000  *
   405       H         75.53300000  *  145.47600000  * -60.35900000  *
   406       C         75.84100000  *  146.37400000  * -58.43100000  *
   407       H         76.20500000  *  147.30400000  * -58.01800000  *
   408       H         74.76300000  *  146.35700000  * -58.24200000  *
   409       C         76.47200000  *  145.22200000  * -57.65900000  *
   410       H         77.55000000  *  145.23900000  * -57.74900000  *
   411       C         76.08000000  *  145.34100000  * -56.19200000  *
   412       H         74.99900000  *  145.23000000  * -56.07700000  *
   413       H         76.57300000  *  144.55300000  * -55.62900000  *
   414       H         76.38500000  *  146.30900000  * -55.80100000  *
   415       C         75.99600000  *  143.89000000  * -58.23600000  *
   416       H         76.41500000  *  143.73000000  * -59.22900000  *
   417       H         76.32800000  *  143.07800000  * -57.59100000  *
   418       H         74.90500000  *  143.87400000  * -58.30500000  *
   419       C         75.32200000  *  147.55900000  * -60.54800000  *
   420       O         74.09500000  *  147.56800000  * -60.66200000  *
   421       N         76.08400000  *  148.63100000  * -60.82900000  *
   422       H         77.08200000  *  148.53500000  * -60.67700000  *
   423       C         75.60100000  *  149.83300000  * -61.53400000  *
   424       H         74.83700000  *  150.33500000  * -60.94100000  *
   425       H         76.43800000  *  150.53300000  * -61.75900000  *
   426       H         75.13800000  *  149.54900000  * -62.49200000  *
   427       H         62.79000000  *  145.77200000  * -59.27600000  *
   428       C         63.71000000  *  145.72000000  * -58.67500000  *
   429       O         63.77900000  *  145.02200000  * -57.66400000  *
   430       N         64.72400000  *  146.45200000  * -59.11400000  *
   431       H         64.63800000  *  147.05100000  * -59.92700000  *
   432       C         65.97100000  *  146.53500000  * -58.38100000  *
   433       H         65.88400000  *  146.09200000  * -57.38600000  *
   434       C         67.11600000  *  145.87700000  * -59.11400000  *
   435       H         67.33600000  *  146.42600000  * -60.03000000  *
   436       C         68.35100000  *  145.87800000  * -58.21400000  *
   437       H         68.14700000  *  145.31400000  * -57.31800000  *
   438       H         69.21000000  *  145.44500000  * -58.72400000  *
   439       H         68.64100000  *  146.89000000  * -57.94500000  *
   440       C         66.72800000  *  144.44400000  * -59.47800000  *
   441       H         66.54900000  *  143.87300000  * -58.56400000  *
   442       H         65.81500000  *  144.42400000  * -60.06800000  *
   443       C         67.77400000  *  143.72700000  * -60.29600000  *
   444       H         68.68300000  *  143.57700000  * -59.72200000  *
   445       H         67.37700000  *  142.75300000  * -60.59800000  *
   446       H         68.02300000  *  144.31300000  * -61.18000000  *
   447       C         66.29500000  *  148.01000000  * -58.22000000  *
   448       O         66.21200000  *  148.78000000  * -59.18400000  *
   449       N         66.56200000  *  148.43400000  * -56.98200000  *
   450       H         66.62800000  *  147.74800000  * -56.23500000  *
   451       C         66.90200000  *  149.82800000  * -56.67000000  *
   452       H         66.08300000  *  150.47200000  * -56.98300000  *
   453       C         67.10800000  *  150.00800000  * -55.15800000  *
   454       H         67.89100000  *  149.32900000  * -54.81700000  *
   455       C         67.50000000  *  151.43800000  * -54.76800000  *
   456       H         66.67500000  *  152.11900000  * -54.96400000  *
   457       H         67.73700000  *  151.47300000  * -53.70500000  *
   458       H         68.37300000  *  151.76600000  * -55.32600000  *
   459       C         65.81300000  *  149.68800000  * -54.41000000  *
   460       H         65.52800000  *  148.64900000  * -54.54500000  *
   461       H         65.97600000  *  149.85600000  * -53.35400000  *
   462       H         65.00800000  *  150.32700000  * -54.76500000  *
   463       C         68.15800000  *  150.21900000  * -57.44500000  *
   464       O         69.19100000  *  149.55600000  * -57.32100000  *
   465       N         68.08000000  *  151.28300000  * -58.25100000  *
   466       H         67.22500000  *  151.80400000  * -58.24500000  *
   467       C         69.18900000  *  151.69800000  * -59.08000000  *
   468       H         69.52500000  *  150.81900000  * -59.63900000  *
   469       C         68.73700000  *  152.76800000  * -60.08300000  *
   470       H         67.83400000  *  152.41100000  * -60.57900000  *
   471       H         68.47700000  *  153.68100000  * -59.53700000  *
   472       C         69.79100000  *  153.06900000  * -61.13100000  *
   473       H         70.72100000  *  153.35000000  * -60.64200000  *
   474       H         69.97400000  *  152.16800000  * -61.71600000  *
   475       C         69.35100000  *  154.17900000  * -62.08100000  *
   476       H         68.50200000  *  153.81400000  * -62.66100000  *
   477       H         69.02300000  *  155.05600000  * -61.52200000  *
   478       C         70.49800000  *  154.55900000  * -63.02400000  *
   479       H         71.33900000  *  154.89000000  * -62.40800000  *
   480       H         70.81900000  *  153.66100000  * -63.56600000  *
   481       N         70.11800000  *  155.62600000  * -63.99700000  *
   482       H         69.74700000  *  156.41600000  * -63.48300000  *
   483       H         70.92600000  *  155.93300000  * -64.52500000  *
   484       H         69.41500000  *  155.27800000  * -64.63600000  *
   485       C         70.36000000  *  152.21400000  * -58.25300000  *
   486       O         70.19400000  *  153.07400000  * -57.38700000  *
   487       N         71.53700000  *  151.64500000  * -58.50700000  *
   488       H         71.59600000  *  150.90400000  * -59.18600000  *
   489       C         72.75000000  *  152.07400000  * -57.83600000  *
   490       H         72.53800000  *  152.52600000  * -56.87100000  *
   491       C         73.72700000  *  150.91100000  * -57.67000000  *
   492       H         73.31500000  *  150.22100000  * -56.93700000  *
   493       H         73.77900000  *  150.36900000  * -58.62000000  *
   494       C         75.16700000  *  151.27300000  * -57.28800000  *
   495       H         75.65500000  *  151.80300000  * -58.10000000  *
   496       C         75.18300000  *  152.16500000  * -56.05900000  *
   497       H         74.60800000  *  151.72100000  * -55.25200000  *
   498       H         76.21000000  *  152.29600000  * -55.73500000  *
   499       H         74.78900000  *  153.14000000  * -56.31200000  *
   500       C         75.93300000  *  149.99400000  * -57.01300000  *
   501       H         75.98300000  *  149.42100000  * -57.93300000  *
   502       H         76.94600000  *  150.24200000  * -56.71200000  *
   503       H         75.43500000  *  149.41000000  * -56.23200000  *
   504       C         73.31900000  *  153.11300000  * -58.79500000  *
   505       O         73.76900000  *  152.77900000  * -59.89700000  *
   506       N         73.26700000  *  154.36900000  * -58.37800000  *
   507       H         72.92600000  *  154.57000000  * -57.44900000  *
   508       C         73.73400000  *  155.46600000  * -59.19700000  *
   509       H         73.47500000  *  155.26500000  * -60.23600000  *
   510       C         73.02500000  *  156.74200000  * -58.76000000  *
   511       H         73.45000000  *  157.06300000  * -57.80900000  *
   512       H         73.23600000  *  157.53300000  * -59.48700000  *
   513       C         71.51300000  *  156.60300000  * -58.58700000  *
   514       H         71.27400000  *  155.80900000  * -57.88500000  *
   515       C         70.97400000  *  157.88000000  * -58.01900000  *
   516       H         71.37000000  *  158.74600000  * -58.56000000  *
   517       H         69.88800000  *  157.89100000  * -58.09300000  *
   518       H         71.22100000  *  157.96000000  * -56.96600000  *
   519       C         70.85100000  *  156.29000000  * -59.92300000  *
   520       H         71.28300000  *  155.39700000  * -60.34200000  *
   521       H         69.78900000  *  156.14400000  * -59.75100000  *
   522       H         71.00300000  *  157.12700000  * -60.60700000  *
   523       C         75.24500000  *  155.67800000  * -59.15800000  *
   524       O         75.83900000  *  156.04700000  * -60.17600000  *
   525       N         75.86200000  *  155.44600000  * -57.99600000  *
   526       H         75.29500000  *  155.17900000  * -57.20400000  *
   527       C         77.30800000  *  155.64700000  * -57.82900000  *
   528       H         77.80800000  *  155.40400000  * -58.76600000  *
   529       C         77.60000000  *  157.11700000  * -57.51900000  *
   530       H         76.91700000  *  157.54400000  * -56.80300000  *
   531       H         78.58200000  *  157.17000000  * -57.04800000  *
   532       C         77.65600000  *  157.97500000  * -58.75600000  *
   533       O         78.67800000  *  157.91700000  * -59.48300000  *
   534       O         76.67400000  *  158.70400000  * -59.00000000  *
   535       C         77.97900000  *  154.81700000  * -56.73400000  *
   536       O         77.37100000  *  154.52100000  * -55.70400000  *
   537       N         79.24700000  *  154.47700000  * -56.96600000  *
   538       H         79.69800000  *  154.82400000  * -57.79800000  *
   539       C         80.06100000  *  153.73800000  * -56.00300000  *
   540       H         79.55400000  *  153.69900000  * -55.05200000  *
   541       C         80.36600000  *  152.29800000  * -56.50400000  *
   542       H         79.42700000  *  151.75200000  * -56.56200000  *
   543       C         80.98100000  *  152.34300000  * -57.88400000  *
   544       H         82.06600000  *  152.43300000  * -57.82100000  *
   545       H         80.74600000  *  151.41400000  * -58.37900000  *
   546       H         80.59600000  *  153.14500000  * -58.51000000  *
   547       C         81.29900000  *  151.58800000  * -55.53900000  *
   548       H         80.81100000  *  151.54900000  * -54.57200000  *
   549       H         81.47300000  *  150.57200000  * -55.87800000  *
   550       H         82.25900000  *  152.09200000  * -55.44900000  *
   551       C         81.36500000  *  154.53600000  * -55.81000000  *
   552       O         82.27000000  *  154.48900000  * -56.64700000  *
   553       N         81.45200000  *  155.28200000  * -54.71000000  *
   554       H         80.67600000  *  155.30400000  * -54.06400000  *
   555       C         82.62100000  *  156.11100000  * -54.44300000  *
   556       H         83.20500000  *  156.21800000  * -55.35800000  *
   557       H         82.32200000  *  157.12800000  * -54.14500000  *
   558       H         83.29700000  *  155.73900000  * -53.65600000  *
   559       H         84.58000000  *  155.17100000  * -47.07300000  *
   560       C         84.22500000  *  154.98400000  * -48.09100000  *
   561       O         84.63900000  *  155.65900000  * -49.04200000  *
   562       N         83.35800000  *  153.99100000  * -48.22200000  *
   563       H         83.13600000  *  153.42800000  * -47.41700000  *
   564       C         82.77600000  *  153.65100000  * -49.50600000  *
   565       H         83.37000000  *  154.04700000  * -50.31700000  *
   566       C         82.71900000  *  152.14000000  * -49.66000000  *
   567       H         83.74000000  *  151.87500000  * -49.95700000  *
   568       H         82.64400000  *  151.54600000  * -48.78400000  *
   569       C         81.82600000  *  151.61900000  * -50.77900000  *
   570       H         80.79100000  *  151.88400000  * -50.58700000  *
   571       C         82.25800000  *  152.23100000  * -52.09200000  *
   572       H         83.31100000  *  152.49100000  * -52.08900000  *
   573       H         82.09300000  *  151.51300000  * -52.88400000  *
   574       H         81.65400000  *  153.10900000  * -52.31200000  *
   575       C         81.89900000  *  150.09400000  * -50.82200000  *
   576       H         81.91300000  *  149.66400000  * -49.82700000  *
   577       H         81.05200000  *  149.70600000  * -51.39100000  *
   578       H         82.82500000  *  149.80300000  * -51.32100000  *
   579       C         81.36700000  *  154.23200000  * -49.54800000  *
   580       O         80.51800000  *  153.85700000  * -48.74500000  *
   581       N         81.13100000  *  155.16100000  * -50.46700000  *
   582       H         81.84500000  *  155.34800000  * -51.16200000  *
   583       C         79.82200000  *  155.78100000  * -50.60800000  *
   584       H         79.27400000  *  155.67000000  * -49.68700000  *
   585       C         79.96700000  *  157.27800000  * -50.86800000  *
   586       H         80.42300000  *  157.50400000  * -51.79700000  *
   587       H         78.95400000  *  157.66400000  * -50.98900000  *
   588       C         80.57600000  *  158.04300000  * -49.72300000  *
   589       C         79.79300000  *  158.48000000  * -48.65600000  *
   590       H         78.73500000  *  158.25400000  * -48.66900000  *
   591       C         80.35600000  *  159.18600000  * -47.59400000  *
   592       H         79.75300000  *  159.56200000  * -46.79700000  *
   593       C         81.71600000  *  159.45200000  * -47.58700000  *
   594       O         82.27600000  *  160.12500000  * -46.52100000  *
   595       H         83.20600000  *  160.30800000  * -46.74500000  *
   596       C         82.51400000  *  159.02600000  * -48.63700000  *
   597       H         83.58200000  *  159.23300000  * -48.65000000  *
   598       C         81.94100000  *  158.32800000  * -49.69800000  *
   599       H         82.57400000  *  157.98100000  * -50.50200000  *
   600       C         79.04800000  *  155.15800000  * -51.76500000  *
   601       O         79.54400000  *  155.08000000  * -52.88800000  *
   602       N         77.86200000  *  154.62600000  * -51.49500000  *
   603       H         77.53500000  *  154.65100000  * -50.53500000  *
   604       C         76.98200000  *  154.05500000  * -52.51200000  *
   605       H         77.50600000  *  154.00100000  * -53.46000000  *
   606       C         76.55200000  *  152.62300000  * -52.14900000  *
   607       H         75.86900000  *  152.66700000  * -51.31100000  *
   608       H         76.00500000  *  152.21500000  * -53.00000000  *
   609       C         77.69100000  *  151.65600000  * -51.78700000  *
   610       H         78.21000000  *  152.01100000  * -50.89600000  *
   611       C         77.12500000  *  150.26800000  * -51.49300000  *
   612       H         76.62500000  *  149.86900000  * -52.37800000  *
   613       H         77.93300000  *  149.59300000  * -51.20600000  *
   614       H         76.41400000  *  150.32600000  * -50.67100000  *
   615       C         78.69200000  *  151.52700000  * -52.92900000  *
   616       H         79.20700000  *  152.47300000  * -53.07100000  *
   617       H         79.43100000  *  150.76900000  * -52.68100000  *
   618       H         78.17500000  *  151.25400000  * -53.85000000  *
   619       C         75.78600000  *  154.98600000  * -52.67200000  *
   620       O         75.10400000  *  155.26500000  * -51.68300000  *
   621       N         75.54700000  *  155.50800000  * -53.87800000  *
   622       H         76.14500000  *  155.25500000  * -54.66000000  *
   623       C         74.40900000  *  156.37500000  * -54.09400000  *
   624       H         73.97600000  *  156.70200000  * -53.15000000  *
   625       C         74.83400000  *  157.63700000  * -54.81800000  *
   626       H         75.25500000  *  157.34500000  * -55.76600000  *
   627       C         73.61400000  *  158.52200000  * -55.10900000  *
   628       H         73.11700000  *  158.76900000  * -54.17500000  *
   629       H         73.94100000  *  159.43100000  * -55.61500000  *
   630       H         72.91600000  *  158.00900000  * -55.76200000  *
   631       C         75.84000000  *  158.38200000  * -53.94900000  *
   632       H         75.28100000  *  158.78400000  * -53.13000000  *
   633       H         76.65600000  *  157.75800000  * -53.60500000  *
   634       H         76.26100000  *  159.20400000  * -54.52500000  *
   635       C         73.31400000  *  155.64400000  * -54.85300000  *
   636       O         73.49500000  *  155.22100000  * -55.99400000  *
   637       N         72.21200000  *  155.38200000  * -54.15600000  *
   638       H         72.14700000  *  155.73900000  * -53.20600000  *
   639       C         71.03600000  *  154.69800000  * -54.68300000  *
   640       H         71.28300000  *  154.22700000  * -55.63000000  *
   641       C         70.59100000  *  153.61000000  * -53.70000000  *
   642       H         70.46500000  *  154.05500000  * -52.71400000  *
   643       H         69.61300000  *  153.24600000  * -54.01000000  *
   644       C         71.52600000  *  152.42100000  * -53.58600000  *
   645       C         71.39000000  *  151.33100000  * -54.46800000  *
   646       H         70.64900000  *  151.35600000  * -55.25300000  *
   647       C         72.21000000  *  150.19700000  * -54.32600000  *
   648       H         72.09500000  *  149.35800000  * -54.99900000  *
   649       C         73.17400000  *  150.15100000  * -53.30500000  *
   650       H         73.80500000  *  149.27800000  * -53.19500000  *
   651       C         73.31700000  *  151.24000000  * -52.42800000  *
   652       H         74.05100000  *  151.19800000  * -51.63700000  *
   653       C         72.50000000  *  152.37700000  * -52.57000000  *
   654       H         72.60900000  *  153.21000000  * -51.88800000  *
   655       C         69.89500000  *  155.69100000  * -54.92100000  *
   656       O         69.78700000  *  156.70400000  * -54.22700000  *
   657       N         69.01900000  *  155.40600000  * -55.88700000  *
   658       H         69.16100000  *  154.56300000  * -56.43400000  *
   659       C         67.73300000  *  156.11200000  * -55.98200000  *
   660       H         67.95200000  *  157.15900000  * -56.19700000  *
   661       C         66.88300000  *  155.57700000  * -57.15100000  *
   662       H         66.01600000  *  156.22900000  * -57.25600000  *
   663       H         67.46400000  *  155.62900000  * -58.07300000  *
   664       C         66.40600000  *  154.13500000  * -56.93800000  *
   665       H         67.28200000  *  153.48600000  * -56.90800000  *
   666       H         65.90200000  *  154.06600000  * -55.97800000  *
   667       C         65.42200000  *  153.63300000  * -58.00100000  *
   668       O         64.53100000  *  154.38400000  * -58.46100000  *
   669       O         65.49300000  *  152.43400000  * -58.34400000  *
   670       C         66.96400000  *  156.06500000  * -54.64100000  *
   671       O         67.01900000  *  155.07800000  * -53.89900000  *
   672       N         66.24800000  *  157.14000000  * -54.31500000  *
   673       H         66.21100000  *  157.92100000  * -54.95500000  *
   674       C         65.37300000  *  157.18500000  * -53.14400000  *
   675       H         65.83600000  *  156.62300000  * -52.33000000  *
   676       C         65.23700000  *  158.64000000  * -52.68600000  *
   677       H         66.23400000  *  159.03600000  * -52.49000000  *
   678       H         64.79300000  *  159.23100000  * -53.48800000  *
   679       C         64.40900000  *  158.80400000  * -51.43000000  *
   680       C         63.06500000  *  159.21700000  * -51.50300000  *
   681       H         62.61400000  *  159.43500000  * -52.46200000  *
   682       C         62.30100000  *  159.33700000  * -50.32900000  *
   683       H         61.26800000  *  159.65100000  * -50.38800000  *
   684       C         62.87600000  *  159.04300000  * -49.08200000  *
   685       H         62.28600000  *  159.12600000  * -48.17800000  *
   686       C         64.22200000  *  158.64400000  * -49.00900000  *
   687       H         64.67300000  *  158.42900000  * -48.05400000  *
   688       C         64.98600000  *  158.51900000  * -50.18000000  *
   689       H         66.01700000  *  158.19800000  * -50.12100000  *
   690       C         64.00100000  *  156.55700000  * -53.44000000  *
   691       O         63.40300000  *  156.83100000  * -54.48500000  *
   692       N         63.47900000  *  155.76400000  * -52.50100000  *
   693       H         64.03400000  *  155.57500000  * -51.67400000  *
   694       C         62.09700000  *  155.26800000  * -52.49600000  *
   695       H         61.51900000  *  155.77100000  * -53.27400000  *
   696       C         62.05100000  *  153.75400000  * -52.75000000  *
   697       H         62.77200000  *  153.26700000  * -52.09500000  *
   698       H         61.05800000  *  153.40400000  * -52.46700000  *
   699       C         62.31000000  *  153.36600000  * -54.21800000  *
   700       H         62.07400000  *  154.20500000  * -54.87200000  *
   701       C         63.76500000  *  152.95600000  * -54.42600000  *
   702       H         64.00700000  *  152.11600000  * -53.77800000  *
   703       H         63.92700000  *  152.67900000  * -55.46600000  *
   704       H         64.42200000  *  153.78800000  * -54.17800000  *
   705       C         61.42900000  *  152.18600000  * -54.63300000  *
   706       H         60.38000000  *  152.43300000  * -54.47400000  *
   707       H         61.57300000  *  151.97300000  * -55.69000000  *
   708       H         61.68000000  *  151.30200000  * -54.04800000  *
   709       C         61.43900000  *  155.60000000  * -51.15700000  *
   710       O         62.06300000  *  155.51300000  * -50.10500000  *
   711       N         60.18100000  *  156.02400000  * -51.18400000  *
   712       H         59.72300000  *  156.10600000  * -52.08300000  *
   713       C         59.56400000  *  156.72700000  * -50.05700000  *
   714       H         60.28500000  *  157.45700000  * -49.68600000  *
   715       C         58.35500000  *  157.51100000  * -50.57500000  *
   716       H         57.56300000  *  156.80900000  * -50.83300000  *
   717       H         58.00800000  *  158.15500000  * -49.76900000  *
   718       C         58.63300000  *  158.37200000  * -51.78800000  *
   719       N         58.77400000  *  157.90500000  * -53.10000000  *
   720       C         59.02800000  *  158.99000000  * -53.85300000  *
   721       H         59.19100000  *  158.97900000  * -54.92500000  *
   722       N         59.05100000  *  160.09400000  * -53.08800000  *
   723       H         59.21700000  *  161.03700000  * -53.42800000  *
   724       C         58.80300000  *  159.72600000  * -51.78300000  *
   725       H         58.75500000  *  160.37700000  * -50.91900000  *
   726       C         59.20300000  *  155.84800000  * -48.84300000  *
   727       O         58.96400000  *  156.39300000  * -47.76500000  *
   728       N         59.17100000  *  154.51500000  * -48.98200000  *
   729       H         59.37900000  *  154.12200000  * -49.89100000  *
   730       C         58.85600000  *  153.57500000  * -47.89500000  *
   731       H         59.28500000  *  153.96900000  * -46.97500000  *
   732       C         57.32500000  *  153.51700000  * -47.71100000  *
   733       H         56.96800000  *  154.52700000  * -47.50300000  *
   734       H         56.85300000  *  153.17900000  * -48.63400000  *
   735       C         56.88500000  *  152.60300000  * -46.55600000  *
   736       H         56.75600000  *  151.59200000  * -46.93400000  *
   737       H         57.65800000  *  152.59500000  * -45.78900000  *
   738       C         55.59400000  *  153.06000000  * -45.88800000  *
   739       O         55.60000000  *  153.66800000  * -44.83000000  *
   740       N         54.44200000  *  152.79000000  * -46.46200000  *
   741       H         53.61400000  *  153.11200000  * -45.98500000  *
   742       H         54.40900000  *  152.31700000  * -47.34700000  *
   743       C         59.48600000  *  152.18300000  * -48.11800000  *
   744       O         59.68200000  *  151.75900000  * -49.25600000  *
   745       N         59.79500000  *  151.46600000  * -47.03100000  *
   746       H         59.59200000  *  151.85900000  * -46.12700000  *
   747       C         60.21600000  *  150.05700000  * -47.05700000  *
   748       H         60.52600000  *  149.81700000  * -48.07000000  *
   749       C         61.45200000  *  149.82500000  * -46.16400000  *
   750       H         61.84800000  *  148.83800000  * -46.40800000  *
   751       H         62.21500000  *  150.55600000  * -46.43800000  *
   752       C         61.22100000  *  149.87800000  * -44.64600000  *
   753       O         60.26300000  *  149.24500000  * -44.15600000  *
   754       O         62.03800000  *  150.51300000  * -43.94000000  *
   755       C         59.05100000  *  149.10800000  * -46.71800000  *
   756       O         58.01800000  *  149.52700000  * -46.17400000  *
   757       N         59.19100000  *  147.81900000  * -47.04800000  *
   758       H         60.03800000  *  147.50900000  * -47.52500000  *
   759       C         58.10100000  *  146.88000000  * -46.84100000  *
   760       H         57.21800000  *  147.32500000  * -47.29300000  *
   761       C         58.41200000  *  145.57700000  * -47.59200000  *
   762       H         58.61300000  *  145.80400000  * -48.64400000  *
   763       H         59.28800000  *  145.12100000  * -47.15800000  *
   764       C         57.28700000  *  144.52700000  * -47.51900000  *
   765       H         57.05600000  *  144.28000000  * -46.48700000  *
   766       C         56.00700000  *  145.04400000  * -48.19600000  *
   767       H         56.23500000  *  145.37800000  * -49.20200000  *
   768       H         55.26800000  *  144.24500000  * -48.23100000  *
   769       H         55.59500000  *  145.87000000  * -47.62900000  *
   770       C         57.76800000  *  143.24900000  * -48.17500000  *
   771       H         58.61500000  *  142.85400000  * -47.62000000  *
   772       H         56.97300000  *  142.50400000  * -48.17100000  *
   773       H         58.06400000  *  143.44500000  * -49.20700000  *
   774       C         57.76400000  *  146.61300000  * -45.36900000  *
   775       O         56.60900000  *  146.37600000  * -45.03000000  *
   776       N         58.75700000  *  146.67700000  * -44.48800000  *
   777       H         59.64000000  *  147.08600000  * -44.79000000  *
   778       C         58.49100000  *  146.46700000  * -43.07300000  *
   779       H         57.97900000  *  145.55100000  * -42.87200000  *
   780       C         59.78200000  *  146.47800000  * -42.25400000  *
   781       H         60.44800000  *  145.70000000  * -42.62000000  *
   782       H         60.28600000  *  147.44000000  * -42.35600000  *
   783       C         59.49200000  *  146.22900000  * -40.76500000  *
   784       H         58.94200000  *  147.08300000  * -40.37400000  *
   785       H         58.87100000  *  145.33200000  * -40.67600000  *
   786       C         60.74500000  *  146.03800000  * -39.93500000  *
   787       H         61.36100000  *  145.25900000  * -40.37900000  *
   788       H         61.30800000  *  146.97100000  * -39.90700000  *
   789       C         60.37600000  *  145.60700000  * -38.51700000  *
   790       H         59.98500000  *  144.58900000  * -38.53700000  *
   791       H         61.27900000  *  145.61300000  * -37.90300000  *
   792       N         59.34600000  *  146.53100000  * -37.94700000  *
   793       H         58.44600000  *  146.48100000  * -38.44300000  *
   794       H         59.09000000  *  146.27800000  * -37.00400000  *
   795       H         59.61300000  *  147.50600000  * -37.97800000  *
   796       C         57.55800000  *  147.53800000  * -42.51200000  *
   797       O         56.61300000  *  147.23400000  * -41.78300000  *
   798       N         57.83700000  *  148.81000000  * -42.81000000  *
   799       H         58.66600000  *  148.99400000  * -43.38100000  *
   800       C         57.02200000  *  149.93900000  * -42.34800000  *
   801       H         56.92400000  *  149.87400000  * -41.26200000  *
   802       C         57.73300000  *  151.25700000  * -42.69200000  *
   803       H         58.76600000  *  151.20000000  * -42.34400000  *
   804       H         57.74100000  *  151.39500000  * -43.77300000  *
   805       C         57.06000000  *  152.46200000  * -42.01600000  *
   806       H         56.04500000  *  152.57100000  * -42.39700000  *
   807       H         57.00900000  *  152.28400000  * -40.94100000  *
   808       C         57.84300000  *  153.75900000  * -42.26800000  *
   809       H         58.84100000  *  153.66300000  * -41.83700000  *
   810       H         57.93300000  *  153.93000000  * -43.34200000  *
   811       C         57.10900000  *  154.93700000  * -41.61500000  *
   812       H         56.11700000  *  155.02400000  * -42.06700000  *
   813       H         56.97300000  *  154.71700000  * -40.55200000  *
   814       N         57.85400000  *  156.21300000  * -41.77300000  *
   815       H         57.97200000  *  156.45300000  * -42.74600000  *
   816       H         57.36100000  *  156.97400000  * -41.33000000  *
   817       H         58.76800000  *  156.15800000  * -41.34800000  *
   818       C         55.61200000  *  149.84500000  * -42.92800000  *
   819       O         54.63800000  *  150.09100000  * -42.22200000  *
   820       N         55.49500000  *  149.42600000  * -44.18900000  *
   821       H         56.35000000  *  149.26300000  * -44.71300000  *
   822       C         54.20500000  *  149.26000000  * -44.85200000  *
   823       H         53.62600000  *  150.17500000  * -44.72500000  *
   824       C         54.41000000  *  148.98800000  * -46.34000000  *
   825       H         54.98900000  *  149.80200000  * -46.77700000  *
   826       H         55.00200000  *  148.07700000  * -46.45200000  *
   827       C         53.12600000  *  148.85300000  * -47.10800000  *
   828       C         52.23100000  *  149.92200000  * -47.18600000  *
   829       H         52.46300000  *  150.85600000  * -46.69900000  *
   830       C         51.01500000  *  149.79500000  * -47.88400000  *
   831       H         50.32500000  *  150.62800000  * -47.91800000  *
   832       C         50.69700000  *  148.60300000  * -48.50200000  *
   833       H         49.75200000  *  148.50200000  * -49.02000000  *
   834       C         51.58700000  *  147.52100000  * -48.43200000  *
   835       H         51.33500000  *  146.58300000  * -48.91200000  *
   836       C         52.79500000  *  147.65400000  * -47.73300000  *
   837       H         53.46700000  *  146.81000000  * -47.67200000  *
   838       C         53.37400000  *  148.12200000  * -44.22700000  *
   839       O         52.16900000  *  148.28300000  * -44.00900000  *
   840       N         54.01600000  *  146.98100000  * -43.96600000  *
   841       H         55.00900000  *  146.90600000  * -44.17900000  *
   842       C         53.33800000  *  145.83600000  * -43.34100000  *
   843       H         52.47600000  *  145.52800000  * -43.93400000  *
   844       C         54.29200000  *  144.65000000  * -43.17000000  *
   845       H         55.15800000  *  145.02700000  * -42.63600000  *
   846       H         53.80700000  *  143.89200000  * -42.54700000  *
   847       C         54.73100000  *  144.00400000  * -44.46100000  *
   848       H         53.84700000  *  143.61400000  * -44.95900000  *
   849       H         55.19200000  *  144.69400000  * -45.15000000  *
   850       S         55.79700000  *  142.58100000  * -44.15400000  *
   851       C         57.05400000  *  143.29200000  * -43.18800000  *
   852       H         56.67800000  *  143.65800000  * -42.23500000  *
   853       H         57.80700000  *  142.53400000  * -42.98200000  *
   854       H         57.44300000  *  144.07900000  * -43.80900000  *
   855       C         52.84400000  *  146.26000000  * -41.95900000  *
   856       O         51.68200000  *  146.03200000  * -41.61400000  *
   857       N         53.72600000  *  146.88400000  * -41.17900000  *
   858       H         54.70100000  *  146.95700000  * -41.45300000  *
   859       C         53.34300000  *  147.35100000  * -39.84600000  *
   860       H         53.03400000  *  146.49700000  * -39.23800000  *
   861       C         54.50500000  *  148.07700000  * -39.15700000  *
   862       H         54.94100000  *  148.81500000  * -39.83000000  *
   863       H         54.12400000  *  148.60600000  * -38.28400000  *
   864       C         55.58400000  *  147.11500000  * -38.68500000  *
   865       O         55.26200000  *  145.90900000  * -38.57600000  *
   866       O         56.73300000  *  147.55200000  * -38.41700000  *
   867       C         52.15000000  *  148.27900000  * -39.96300000  *
   868       O         51.20300000  *  148.18000000  * -39.18700000  *
   869       N         52.18300000  *  149.16200000  * -40.95500000  *
   870       H         53.01600000  *  149.23700000  * -41.51800000  *
   871       C         51.08600000  *  150.10000000  * -41.17300000  *
   872       H         50.93100000  *  150.67400000  * -40.25800000  *
   873       C         51.42800000  *  151.06800000  * -42.31500000  *
   874       H         51.45500000  *  150.53900000  * -43.26600000  *
   875       H         50.66000000  *  151.83800000  * -42.36800000  *
   876       H         52.39300000  *  151.53600000  * -42.12800000  *
   877       C         49.78900000  *  149.37000000  * -41.49900000  *
   878       O         48.71100000  *  149.83600000  * -41.15600000  *
   879       N         49.90500000  *  148.22900000  * -42.16400000  *
   880       H         50.83800000  *  147.88500000  * -42.38200000  *
   881       C         48.74000000  *  147.45400000  * -42.57500000  *
   882       H         47.85700000  *  148.08600000  * -42.62800000  *
   883       H         48.90600000  *  147.02300000  * -43.58600000  *
   884       H         48.52600000  *  146.61900000  * -41.88800000  *
   885       H         72.54500000  *  137.05800000  * -55.15200000  *
   886       C         72.38600000  *  137.90500000  * -54.47400000  *
   887       O         73.28300000  *  138.71900000  * -54.28600000  *
   888       N         71.20100000  *  138.01500000  * -53.89800000  *
   889       H         70.47300000  *  137.31400000  * -54.05700000  *
   890       C         70.96800000  *  139.10000000  * -52.94900000  *
   891       H         71.50000000  *  140.00600000  * -53.22900000  *
   892       C         69.47700000  *  139.40500000  * -52.82500000  *
   893       H         69.09300000  *  139.71900000  * -53.79200000  *
   894       H         68.93000000  *  138.50600000  * -52.53300000  *
   895       C         69.17800000  *  140.45400000  * -51.81200000  *
   896       N         69.23000000  *  140.42300000  * -50.45900000  *
   897       C         68.94700000  *  141.69100000  * -50.01400000  *
   898       H         68.96900000  *  142.01200000  * -48.98400000  *
   899       N         68.72400000  *  142.47200000  * -51.05500000  *
   900       H         68.47200000  *  143.44500000  * -51.00700000  *
   901       C         68.85400000  *  141.75000000  * -52.15500000  *
   902       H         68.77100000  *  142.12600000  * -53.16500000  *
   903       C         71.52100000  *  138.65700000  * -51.58300000  *
   904       O         72.28000000  *  139.38000000  * -50.94700000  *
   905       N         71.11400000  *  137.47100000  * -51.14500000  *
   906       H         70.37100000  *  137.01600000  * -51.66500000  *
   907       C         71.55500000  *  136.88000000  * -49.87700000  *
   908       H         71.18200000  *  135.84900000  * -49.87900000  *
   909       C         73.07600000  *  136.85300000  * -49.83700000  *
   910       H         73.53100000  *  137.83300000  * -49.86900000  *
   911       H         73.36600000  *  136.47900000  * -48.85100000  *
   912       C         73.64700000  *  135.85900000  * -50.81700000  *
   913       H         73.29800000  *  134.87100000  * -50.67200000  *
   914       H         73.21600000  *  136.10500000  * -51.78700000  *
   915       C         75.11700000  *  136.08400000  * -50.99900000  *
   916       H         75.61200000  *  135.95400000  * -50.03300000  *
   917       H         75.49500000  *  135.33200000  * -51.69500000  *
   918       N         75.35800000  *  137.42700000  * -51.50600000  *
   919       H         74.62100000  *  138.12700000  * -51.38200000  *
   920       C         76.54800000  *  137.85900000  * -51.89000000  *
   921       N         77.59300000  *  137.04400000  * -51.81500000  *
   922       H         77.44700000  *  136.21200000  * -51.26800000  *
   923       H         78.49900000  *  137.44300000  * -51.92100000  *
   924       N         76.69000000  *  139.09300000  * -52.35600000  *
   925       H         75.86000000  *  139.69200000  * -52.33800000  *
   926       H         77.56200000  *  139.47800000  * -52.67100000  *
   927       C         71.03700000  *  137.42400000  * -48.54200000  *
   928       O         71.18700000  *  136.76800000  * -47.50900000  *
   929       N         70.43700000  *  138.60400000  * -48.51600000  *
   930       H         70.32800000  *  139.16900000  * -49.34700000  *
   931       C         69.93700000  *  139.07600000  * -47.23100000  *
   932       H         69.76500000  *  138.24900000  * -46.54100000  *
   933       C         70.93500000  *  140.04200000  * -46.56200000  *
   934       H         71.90900000  *  139.56600000  * -46.50900000  *
   935       H         71.04400000  *  140.94300000  * -47.17900000  *
   936       C         70.51300000  *  140.42800000  * -45.14700000  *
   937       O         70.17200000  *  139.51500000  * -44.35500000  *
   938       O         70.51000000  *  141.64400000  * -44.82500000  *
   939       C         68.58700000  *  139.73400000  * -47.37800000  *
   940       O         68.35000000  *  140.81000000  * -46.83500000  *
   941       N         67.68700000  *  139.08300000  * -48.11000000  *
   942       H         67.94300000  *  138.20800000  * -48.54500000  *
   943       C         66.35900000  *  139.64900000  * -48.29900000  *
   944       H         66.47700000  *  140.66700000  * -48.65900000  *
   945       C         65.54600000  *  138.81300000  * -49.28800000  *
   946       H         65.58300000  *  137.78400000  * -48.94500000  *
   947       H         64.50600000  *  139.14000000  * -49.25500000  *
   948       C         66.02700000  *  138.85500000  * -50.73600000  *
   949       H         67.06400000  *  138.52800000  * -50.78200000  *
   950       C         65.17300000  *  137.91700000  * -51.58300000  *
   951       H         64.15900000  *  138.30500000  * -51.68800000  *
   952       H         65.63400000  *  137.80700000  * -52.55000000  *
   953       H         65.13400000  *  136.93500000  * -51.11000000  *
   954       C         65.92100000  *  140.27700000  * -51.26400000  *
   955       H         66.42000000  *  140.99600000  * -50.63300000  *
   956       H         66.44200000  *  140.27500000  * -52.20900000  *
   957       H         64.88200000  *  140.56100000  * -51.39700000  *
   958       C         65.59400000  *  139.73400000  * -46.98200000  *
   959       O         65.58600000  *  138.79200000  * -46.16600000  *
   960       N         64.95700000  *  140.85600000  * -46.74400000  *
   961       H         64.96700000  *  141.58900000  * -47.44100000  *
   962       C         64.16600000  *  141.06100000  * -45.54600000  *
   963       H         63.55300000  *  140.17100000  * -45.40900000  *
   964       C         65.04100000  *  141.22300000  * -44.28500000  *
   965       H         64.40400000  *  141.28500000  * -43.40200000  *
   966       H         65.63800000  *  140.31900000  * -44.16700000  *
   967       C         65.97700000  *  142.43900000  * -44.28600000  *
   968       H         66.38200000  *  142.59200000  * -45.28400000  *
   969       H         65.42400000  *  143.32700000  * -43.98300000  *
   970       C         67.13700000  *  142.17200000  * -43.32000000  *
   971       H         66.74300000  *  141.89200000  * -42.34000000  *
   972       H         67.71700000  *  141.33500000  * -43.71700000  *
   973       C         68.04300000  *  143.39600000  * -43.16500000  *
   974       H         68.14700000  *  143.88800000  * -44.13700000  *
   975       H         67.56000000  *  144.10300000  * -42.48100000  *
   976       N         69.37800000  *  142.98900000  * -42.65200000  *
   977       H         69.87100000  *  142.42000000  * -43.35500000  *
   978       H         69.94400000  *  143.79700000  * -42.42200000  *
   979       H         69.28400000  *  142.43600000  * -41.81000000  *
   980       C         63.26700000  *  142.23100000  * -45.83500000  *
   981       O         63.62900000  *  143.07600000  * -46.65300000  *
   982       N         62.11200000  *  142.30300000  * -45.18600000  *
   983       C         61.62600000  *  141.34600000  * -44.17100000  *
   984       H         62.10000000  *  141.53200000  * -43.20900000  *
   985       H         61.74500000  *  140.31100000  * -44.47600000  *
   986       C         60.16400000  *  141.66900000  * -44.09500000  *
   987       H         59.73700000  *  141.34900000  * -43.14300000  *
   988       H         59.63700000  *  141.20600000  * -44.93200000  *
   989       C         60.16000000  *  143.18900000  * -44.24800000  *
   990       H         60.51600000  *  143.64900000  * -43.32100000  *
   991       H         59.20200000  *  143.56500000  * -44.57400000  *
   992       C         61.14500000  *  143.38000000  * -45.40300000  *
   993       H         60.63400000  *  143.20500000  * -46.34500000  *
   994       C         61.77100000  *  144.77100000  * -45.44800000  *
   995       O         61.39200000  *  145.58400000  * -46.27300000  *
   996       N         62.72500000  *  145.09100000  * -44.55600000  *
   997       H         62.97100000  *  144.40500000  * -43.85900000  *
   998       C         63.44000000  *  146.39100000  * -44.53700000  *
   999       H         62.70500000  *  147.19300000  * -44.44000000  *
  1000       C         64.40100000  *  146.46300000  * -43.33800000  *
  1001       H         65.08600000  *  145.61600000  * -43.37900000  *
  1002       H         64.99500000  *  147.37400000  * -43.42700000  *
  1003       C         63.70700000  *  146.49800000  * -41.97000000  *
  1004       H         63.02200000  *  147.34600000  * -41.94500000  *
  1005       H         63.13600000  *  145.58300000  * -41.82600000  *
  1006       C         64.71300000  *  146.61900000  * -40.82300000  *
  1007       O         65.71500000  *  145.91900000  * -40.76300000  *
  1008       N         64.48900000  *  147.49200000  * -39.86600000  *
  1009       H         65.16200000  *  147.56000000  * -39.11600000  *
  1010       H         63.69100000  *  148.10800000  * -39.89800000  *
  1011       C         64.26400000  *  146.68100000  * -45.81000000  *
  1012       O         64.44100000  *  147.83600000  * -46.18800000  *
  1013       N         64.76000000  *  145.63400000  * -46.47400000  *
  1014       H         64.48200000  *  144.71400000  * -46.16600000  *
  1015       C         65.53700000  *  145.69500000  * -47.71200000  *
  1016       H         66.11000000  *  146.62500000  * -47.73900000  *
  1017       C         66.53800000  *  144.50900000  * -47.74800000  *
  1018       H         66.02500000  *  143.58600000  * -47.49200000  *
  1019       H         66.91500000  *  144.38900000  * -48.76100000  *
  1020       C         67.76300000  *  144.67200000  * -46.85800000  *
  1021       O         68.08200000  *  145.74100000  * -46.37100000  *
  1022       N         68.51300000  *  143.61900000  * -46.61500000  *
  1023       H         69.37600000  *  143.75100000  * -46.11500000  *
  1024       H         68.25500000  *  142.67600000  * -46.88800000  *
  1025       C         64.63400000  *  145.71500000  * -48.96500000  *
  1026       O         65.15800000  *  145.63400000  * -50.07400000  *
  1027       N         63.30000000  *  145.80300000  * -48.83400000  *
  1028       H         62.89500000  *  145.87300000  * -47.90900000  *
  1029       C         62.40600000  *  145.84500000  * -49.97900000  *
  1030       H         62.94700000  *  145.74800000  * -50.91900000  *
  1031       C         61.36900000  *  144.72100000  * -49.88900000  *
  1032       H         60.76900000  *  144.86100000  * -48.99200000  *
  1033       H         60.74400000  *  144.79800000  * -50.77200000  *
  1034       C         62.03600000  *  143.32400000  * -49.85900000  *
  1035       H         62.67100000  *  143.24000000  * -48.98800000  *
  1036       C         61.00200000  *  142.26000000  * -49.77100000  *
  1037       H         60.24600000  *  142.42800000  * -50.53400000  *
  1038       H         61.44700000  *  141.27100000  * -49.89000000  *
  1039       H         60.52000000  *  142.31900000  * -48.79800000  *
  1040       C         62.89500000  *  143.12600000  * -51.08400000  *
  1041       H         63.82900000  *  143.66800000  * -50.95600000  *
  1042       H         63.12900000  *  142.06900000  * -51.20900000  *
  1043       H         62.39300000  *  143.49200000  * -51.96600000  *
  1044       C         61.76300000  *  147.21800000  * -49.95200000  *
  1045       O         61.15000000  *  147.60200000  * -48.96600000  *
  1046       N         61.88000000  *  147.97600000  * -51.03400000  *
  1047       H         62.37200000  *  147.60500000  * -51.84100000  *
  1048       C         61.44000000  *  149.36900000  * -51.06200000  *
  1049       H         61.05400000  *  149.66800000  * -50.09000000  *
  1050       C         62.62000000  *  150.27600000  * -51.38400000  *
  1051       H         62.95100000  *  150.07800000  * -52.40400000  *
  1052       H         62.26200000  *  151.30000000  * -51.32100000  *
  1053       C         63.81200000  *  150.10600000  * -50.43500000  *
  1054       H         64.22900000  *  149.10600000  * -50.53700000  *
  1055       C         64.86000000  *  151.12200000  * -50.83900000  *
  1056       H         64.50300000  *  152.11800000  * -50.59100000  *
  1057       H         65.78400000  *  150.90400000  * -50.31200000  *
  1058       H         65.04500000  *  151.08600000  * -51.90500000  *
  1059       C         63.46300000  *  150.34500000  * -48.96900000  *
  1060       H         62.84700000  *  149.53000000  * -48.60400000  *
  1061       H         64.37300000  *  150.37000000  * -48.37100000  *
  1062       H         62.92500000  *  151.28400000  * -48.86100000  *
  1063       C         60.32100000  *  149.56100000  * -52.06500000  *
  1064       O         60.41600000  *  149.10000000  * -53.19100000  *
  1065       N         59.26800000  *  150.25600000  * -51.67700000  *
  1066       H         59.36500000  *  150.76300000  * -50.80000000  *
  1067       C         58.08300000  *  150.44700000  * -52.50800000  *
  1068       H         58.17300000  *  149.92400000  * -53.45700000  *
  1069       C         56.81900000  *  149.90600000  * -51.78600000  *
  1070       H         55.94300000  *  150.08700000  * -52.41500000  *
  1071       C         56.95000000  *  148.40400000  * -51.54300000  *
  1072       H         57.75300000  *  148.18300000  * -50.83300000  *
  1073       H         56.01300000  *  148.00400000  * -51.15200000  *
  1074       H         57.15800000  *  147.91500000  * -52.48900000  *
  1075       C         56.64700000  *  150.60600000  * -50.43300000  *
  1076       H         57.48200000  *  150.38000000  * -49.77500000  *
  1077       H         56.60500000  *  151.68300000  * -50.57600000  *
  1078       C         55.37000000  *  150.22200000  * -49.68600000  *
  1079       H         55.48900000  *  149.24800000  * -49.22200000  *
  1080       H         55.17000000  *  150.96500000  * -48.91000000  *
  1081       H         54.52900000  *  150.16800000  * -50.38500000  *
  1082       C         57.87200000  *  151.93000000  * -52.81700000  *
  1083       O         58.38200000  *  152.79400000  * -52.10000000  *
  1084       N         57.14900000  *  152.22000000  * -53.89700000  *
  1085       H         56.70500000  *  151.48200000  * -54.43300000  *
  1086       C         56.84100000  *  153.60200000  * -54.22700000  *
  1087       H         57.16800000  *  154.27800000  * -53.43100000  *
  1088       C         57.50400000  *  154.05300000  * -55.54100000  *
  1089       H         57.21800000  *  155.07000000  * -55.80500000  *
  1090       H         58.58200000  *  154.04400000  * -55.38800000  *
  1091       C         57.19300000  *  153.14600000  * -56.70100000  *
  1092       O         56.13500000  *  152.53500000  * -56.76400000  *
  1093       N         58.11500000  *  153.07200000  * -57.64100000  *
  1094       H         57.83300000  *  152.61700000  * -58.48600000  *
  1095       H         58.88600000  *  153.71500000  * -57.62100000  *
  1096       C         55.33100000  *  153.75800000  * -54.32100000  *
  1097       O         54.57600000  *  152.79900000  * -54.11400000  *
  1098       N         54.88500000  *  154.97100000  * -54.62100000  *
  1099       H         55.52100000  *  155.73600000  * -54.79200000  *
  1100       C         53.46400000  *  155.24700000  * -54.72300000  *
  1101       H         52.92700000  *  154.82600000  * -53.87200000  *
  1102       C         53.20900000  *  156.78000000  * -54.75500000  *
  1103       H         52.16900000  *  156.98000000  * -55.02600000  *
  1104       C         53.47800000  *  157.39700000  * -53.41000000  *
  1105       H         54.52100000  *  157.25500000  * -53.13000000  *
[...]
 1005  H   0.82995
 1006  C   1.06494   0.79575   0.73749   0.79749
 1007  O   1.87734   1.41832   1.57333   1.82729
 1008  N   1.52686   1.35602   1.40124   1.31427
 1009  H   0.65722
 1010  H   0.66251
 1011  C   1.08349   0.75504   0.78205   0.81702
 1012  O   1.88466   1.66415   1.31117   1.72769
 1013  N   1.55097   1.50766   1.20159   1.30298
 1014  H   0.66638
 1015  C   1.07291   0.94709   1.09166   0.82153
 1016  H   0.80442
 1017  C   1.07048   1.05067   1.09049   1.16257
 1018  H   0.83059
 1019  H   0.79614
 1020  C   1.05837   0.80554   0.76586   0.75924
 1021  O   1.87469   1.76543   1.41304   1.61500
 1022  N   1.53155   1.31553   1.19658   1.58073
 1023  H   0.66657
 1024  H   0.65389
 1025  C   1.08789   0.78515   0.72001   0.85267
 1026  O   1.87861   1.76689   1.61073   1.38046
 1027  N   1.54115   1.12559   1.66459   1.18375
 1028  H   0.65385
 1029  C   1.07004   0.96887   0.98046   0.97441
 1030  H   0.81123
 1031  C   1.06726   1.06420   0.99762   1.17263
 1032  H   0.83743
 1033  H   0.84802
 1034  C   1.04100   1.01192   0.94640   1.06212
 1035  H   0.85591
 1036  C   1.04919   1.12585   1.11846   1.17080
 1037  H   0.84486
 1038  H   0.84902
 1039  H   0.86560
 1040  C   1.05150   1.14129   1.17174   1.09912
 1041  H   0.84509
 1042  H   0.85768
 1043  H   0.84976
 1044  C   1.07605   0.75008   0.84350   0.75530
 1045  O   1.87189   1.53767   1.79692   1.44684
 1046  N   1.54558   1.55766   1.17225   1.24423
 1047  H   0.64494
 1048  C   1.06441   0.99064   0.82599   1.10000
 1049  H   0.81446
 1050  C   1.06443   1.02141   1.10727   1.12683
 1051  H   0.84610
 1052  H   0.83949
 1053  C   1.04790   0.96678   1.07364   0.96819
 1054  H   0.86595
 1055  C   1.05366   1.12271   1.13181   1.16586
 1056  H   0.84564
 1057  H   0.84889
 1058  H   0.85978
 1059  C   1.05446   1.17602   1.17767   1.04711
 1060  H   0.83985
 1061  H   0.85161
 1062  H   0.84748
 1063  C   1.07526   0.79808   0.74359   0.81707
 1064  O   1.86927   1.83074   1.62565   1.34190
 1065  N   1.54203   1.19042   1.46993   1.29627
 1066  H   0.64315
 1067  C   1.07592   0.88899   1.00611   1.04178
 1068  H   0.80985
 1069  C   1.06434   1.01640   0.99310   1.01958
 1070  H   0.85005
 1071  C   1.05460   1.18097   1.03401   1.17666
 1072  H   0.84356
 1073  H   0.84529
 1074  H   0.85308
 1075  C   1.05396   1.06872   1.11966   1.03180
 1076  H   0.84691
 1077  H   0.86138
 1078  C   1.05259   1.08992   1.15802   1.13221
 1079  H   0.84798
 1080  H   0.87729
 1081  H   0.84665
 1082  C   1.08628   0.74172   0.88773   0.74194
 1083  O   1.88670   1.56929   1.57707   1.55730
 1084  N   1.54293   1.50726   1.14377   1.33772
 1085  H   0.64343
 1086  C   1.06231   0.97183   0.88431   1.03725
 1087  H   0.80549
 1088  C   1.07254   1.18099   1.12790   1.02347
 1089  H   0.80970
 1090  H   0.80373
 1091  C   1.06086   0.76174   0.77067   0.82346
 1092  O   1.88008   1.35604   1.56959   1.83569
 1093  N   1.53409   1.29767   1.49483   1.27183
 1094  H   0.67199
 1095  H   0.66447
 1096  C   1.08306   0.88531   0.75950   0.71360
 1097  O   1.88782   1.65405   1.46834   1.58825
 1098  N   1.54010   1.14526   1.19756   1.67211
 1099  H   0.66312
 1100  C   1.08558   0.83712   1.05819   1.08273
 1101  H   0.80379
 1102  C   1.08424   0.99147   0.86680   0.88985
 1103  H   0.84708
 1104  C   1.05379   1.18341   1.18051   1.05447
 1105  H   0.84174
 1106  H   0.82409
 1107  H   0.82932
 1108  O   1.84880   1.59235   1.82300   1.34536
 1109  H   0.64233
 1110  C   1.07330   0.78903   0.75556   0.82404
 1111  O   1.87787   1.27991   1.68890   1.84869
 1112  N   1.53329   1.19333   1.53466   1.21091
 1113  H   0.66706
 1114  C   1.05710   1.15382   1.13339   0.89306
 1115  H   0.83551
 1116  H   0.83768
 1117  H   0.83543
 1118  H   0.83983
 1119  C   1.10503   0.75487   0.73542   0.91342
 1120  O   1.88314   1.71070   1.59674   1.48268
 1121  N   1.54488   1.42814   1.34564   1.20823
 1122  H   0.65363
 1123  C   1.08074   0.93110   1.08427   0.93132
 1124  H   0.80920
 1125  C   1.07312   1.07911   0.95394   0.98258
 1126  H   0.84407
 1127  C   1.05811   1.18708   1.08410   1.12927
 1128  H   0.84361
 1129  H   0.84856
 1130  H   0.85212
 1131  C   1.05414   1.07576   1.13453   1.01855
 1132  H   0.85373
 1133  H   0.85450
 1134  C   1.04917   1.14386   1.15106   1.09065
 1135  H   0.84999
 1136  H   0.85973
 1137  H   0.84947
 1138  C   1.07213   0.84173   0.73678   0.77769
 1139  O   1.87774   1.89043   1.52092   1.39103
 1140  N   1.54473   1.10285   1.52625   1.33534
 1141  H   0.63231
 1142  C   1.06992   0.84580   1.05443   1.03747
 1143  H   0.81845
 1144  C   1.06005   1.09233   1.04545   1.09643
 1145  H   0.83552
 1146  H   0.84691
 1147  C   1.05102   1.08527   1.04435   1.07715
 1148  H   0.85102
 1149  H   0.84438
 1150  C   1.05932   1.08195   1.05391   1.09873
 1151  H   0.84121
 1152  H   0.83198
 1153  C   1.07849   1.02186   0.99766   1.07351
 1154  H   0.81328
 1155  H   0.83402
 1156  N   1.46162   1.23191   1.23353   1.26061
 1157  H   0.68584
 1158  H   0.70067
 1159  H   0.68821
 1160  C   1.07842   0.77971   0.75033   0.82537
 1161  O   1.88104   1.77282   1.69330   1.29101
 1162  N   1.54479   1.32885   1.42530   1.23087
 1163  H   0.64041
 1164  C   1.07017   0.91866   0.95779   1.02898
 1165  H   0.83220
 1166  C   1.06272   1.10009   1.01962   1.13298
 1167  H   0.83518
 1168  H   0.84517
 1169  C   1.05369   1.07063   0.96107   0.96332
 1170  H   0.85954
 1171  C   1.06223   1.16609   1.13942   1.09240
 1172  H   0.85203
 1173  H   0.84928
 1174  H   0.85267
 1175  C   1.05741   1.18265   1.13700   1.08889
 1176  H   0.85343
 1177  H   0.84827
 1178  H   0.85443
 1179  C   1.08429   0.79179   0.79948   0.75958
 1180  O   1.88077   1.63434   1.59906   1.53908
 1181  N   1.54319   1.36411   1.43987   1.15984
 1182  H   0.64510
 1183  C   1.06715   0.91105   0.92884   1.05077
 1184  H   0.82653
 1185  C   1.05947   1.16559   1.08537   1.15288
 1186  H   0.82140
 1187  H   0.83388
 1188  H   0.82589
 1189  C   1.08859   0.78570   0.78622   0.74591
 1190  O   1.87146   1.83757   1.36066   1.60392
 1191  N   1.54577   1.17632   1.32071   1.49223
 1192  H   0.67067
 1193  C   1.07533   0.88791   1.07676   0.92832
 1194  H   0.81617
 1195  C   1.07779   1.15026   1.16588   1.01742
 1196  H   0.80620
 1197  H   0.83620
 1198  C   1.07073   0.72701   0.73633   0.70053
 1199  O   1.88745   1.67377   1.49491   1.66680
 1200  O   1.87018   1.79396   1.43273   1.78359
 1201  C   1.08906   0.81897   0.79512   0.74992
 1202  O   1.88710   1.28958   1.79693   1.57726
 1203  N   1.56613   1.29239   1.17007   1.53748
 1204  H   0.68153
 1205  C   1.08006   1.02159   0.91667   0.95369
 1206  H   0.83869
 1207  C   1.05575   1.07855   1.20268   0.96242
 1208  H   0.81399
 1209  H   0.81892
 1210  C   1.07453   0.97386   0.97802   0.97084
 1211  C   1.09007   1.04122   1.04097   1.01376
 1212  H   0.83948
 1213  C   1.08870   0.98526   1.06200   1.01043
 1214  H   0.84200
 1215  C   1.08758   1.05956   0.99137   1.03162
 1216  H   0.84745
 1217  C   1.08944   1.03680   1.03639   0.98893
 1218  H   0.83126
 1219  C   1.08722   0.98670   1.06371   1.02400
 1220  H   0.83903
 1221  C   1.08902   0.80321   0.77417   0.76415
 1222  O   1.88540   1.44299   1.55825   1.71375
 1223  N   1.53945   1.41482   1.43762   1.13609
 1224  H   0.68528
 1225  C   1.06855   0.98869   1.06822   0.98115
 1226  H   0.81243
 1227  H   0.80662
 1228  C   1.07941   0.82863   0.77926   0.70601
 1229  O   1.87691   1.84101   1.32427   1.61178
 1230  N   1.55776   1.29866   1.23347   1.44671
 1231  H   0.67303
 1232  C   1.07756   0.89844   1.03261   0.96801
 1233  H   0.83348
 1234  C   1.06794   1.11283   0.95100   1.17542
 1235  H   0.83820
 1236  H   0.82887
 1237  C   1.05170   1.03243   0.96115   1.00987
 1238  H   0.86393
 1239  C   1.05598   1.16823   1.06670   1.16482
 1240  H   0.85773
 1241  H   0.84440
 1242  H   0.85497
 1243  C   1.05566   1.17123   1.18876   1.04700
 1244  H   0.84138
 1245  H   0.84229
 1246  H   0.85714
 1247  C   1.09507   0.85746   0.76564   0.72548
 1248  O   1.88119   1.32482   1.78582   1.59387
 1249  N   1.58219   1.28179   1.23352   1.52142
 1250  H   0.66065
 1251  C   1.06839   0.96428   0.99709   0.95441
 1252  H   0.83665
 1253  C   1.05863   1.13984   1.09738   1.17436
 1254  H   0.84400
 1255  H   0.81025
 1256  H   0.81038
 1257  C   1.07585   0.83430   0.75214   0.78145
 1258  O   1.88393   1.49974   1.59948   1.64945
 1259  N   1.54297   1.31132   1.51232   1.14412
 1260  H   0.67605
 1261  C   1.06249   0.92429   1.14578   1.10585
 1262  H   0.82639
 1263  H   0.82964
 1264  H   0.83900
 1265  H   0.84143
 1266  C   1.10470   0.72485   0.79426   0.87715
 1267  O   1.88385   1.53303   1.36191   1.88318
 1268  N   1.54277   1.48747   1.35123   1.14847
 1269  H   0.67724
 1270  C   1.07287   1.11770   0.96748   0.82236
 1271  H   0.80323
 1272  C   1.05765   1.09008   1.02721   1.14951
 1273  H   0.83747
 1274  H   0.82212
 1275  C   1.06407   0.97758   0.94924   0.96774
 1276  C   1.08269   1.01988   0.99378   1.05838
 1277  H   0.84017
 1278  C   1.08219   1.04758   1.02814   0.99886
 1279  H   0.84531
 1280  C   1.08118   1.00707   1.05570   1.02565
 1281  H   0.85003
 1282  C   1.08048   1.02461   1.00340   1.05492
 1283  H   0.85488
 1284  C   1.08307   1.05805   1.02561   0.99536
 1285  H   0.84054
 1286  C   1.08042   0.76612   0.78604   0.79868
 1287  O   1.88389   1.53901   1.68014   1.53344
 1288  N   1.53661   1.17622   1.34801   1.43214
 1289  H   0.67265
 1290  C   1.05818   1.14228   0.97687   0.99774
 1291  H   0.81405
 1292  H   0.78718
 1293  C   1.07319   0.78275   0.75099   0.80186
 1294  O   1.87264   1.55413   1.39751   1.84253
 1295  N   1.53498   1.40676   1.37221   1.17630
 1296  H   0.64873
 1297  C   1.07478   1.00347   1.20099   0.87800
 1298  H   0.80858
 1299  H   0.79369
 1300  C   1.08137   0.77431   0.74554   0.80720
 1301  O   1.88286   1.52200   1.53295   1.73143
 1302  N   1.56505   1.44468   1.16667   1.26712
 1303  C   1.07055   1.06974   0.86803   1.05586
 1304  H   0.83631
 1305  H   0.83945
 1306  C   1.05727   1.04659   1.13850   1.05932
 1307  H   0.84618
 1308  H   0.80532
 1309  C   1.06101   1.08217   0.98329   1.17208
 1310  H   0.83513
 1311  H   0.81960
 1312  C   1.07350   1.05229   1.00108   0.86767
 1313  H   0.81341
 1314  C   1.08827   0.76337   0.76827   0.82859
 1315  O   1.88394   1.42709   1.43562   1.88332
 1316  N   1.54314   1.40354   1.48386   1.11749
 1317  H   0.64353
 1318  C   1.08216   1.04962   1.11404   0.89135
 1319  H   0.80107
 1320  H   0.78759
 1321  C   1.08827   0.82550   0.73033   0.77834
 1322  O   1.88490   1.70331   1.72973   1.32968
 1323  N   1.55105   1.23223   1.41115   1.34476
 1324  H   0.68798
 1325  C   1.07567   0.86020   1.06405   0.97860
 1326  H   0.82213
 1327  C   1.05960   1.16888   1.07560   0.97650
 1328  H   0.83474
 1329  H   0.83905
 1330  C   1.05817   1.13840   1.07472   1.02388
 1331  H   0.82461
 1332  H   0.87169
 1333  C   1.06376   1.08748   1.10001   0.78143
 1334  H   0.85053
 1335  H   0.81928
 1336  N   1.53281   1.62693   1.28989   1.09339
 1337  H   0.64877
 1338  C   0.97598   0.83627   0.80288   0.79452
 1339  N   1.50145   1.56336   1.25853   1.24812
 1340  H   0.67467
 1341  H   0.62641
 1342  N   1.50406   1.55706   1.35352   1.14117
 1343  H   0.64457
 1344  H   0.63726
 1345  C   1.08256   0.75726   0.77377   0.84380
 1346  O   1.88768   1.48046   1.64693   1.56780
 1347  N   1.54268   1.54533   1.19718   1.23974
 1348  H   0.67308
 1349  C   1.08989   1.00067   1.00997   0.92017
 1350  H   0.80153
 1351  C   1.08599   0.93003   0.92603   0.87787
 1352  H   0.85112
 1353  C   1.05848   1.09892   1.12809   1.20464
 1354  H   0.82474
 1355  H   0.83308
 1356  H   0.83165
 1357  O   1.84280   1.58407   1.64127   1.56964
 1358  H   0.62470
 1359  C   1.07896   0.81217   0.79104   0.76173
 1360  O   1.88715   1.53871   1.79234   1.37158
 1361  N   1.55259   1.32707   1.29575   1.37684
 1362  H   0.65233
 1363  C   1.07398   0.98860   0.92729   0.99320
 1364  H   0.81755
 1365  C   1.05782   1.09536   1.06823   1.08709
 1366  H   0.84141
 1367  H   0.82675
 1368  C   1.06145   0.97152   0.97471   1.05712
 1369  C   1.08288   0.97273   1.07989   0.99299
 1370  H   0.84402
 1371  C   1.08263   1.08136   0.99519   1.01219
 1372  H   0.80796
 1373  C   1.06601   0.82630   0.89600   0.91516
 1374  O   1.84135   1.46932   1.54049   1.69607
 1375  H   0.63907
 1376  C   1.07390   0.99030   1.09172   1.06902
 1377  H   0.84731
 1378  C   1.08144   1.06407   0.99936   0.99813
 1379  H   0.85863
 1380  C   1.08208   0.77621   0.73394   0.82108
 1381  O   1.88473   1.39065   1.55636   1.82939
 1382  N   1.55037   1.20073   1.60162   1.14804
 1383  H   0.66086
 1384  C   1.08714   1.11678   1.03448   0.83764
 1385  H   0.82128
 1386  C   1.08253   0.83229   0.89107   1.00021
 1387  H   0.86861
 1388  C   1.05717   1.09850   1.14092   1.18964
 1389  H   0.83080
 1390  H   0.84577
 1391  H   0.84162
 1392  O   1.84699   1.32399   1.76630   1.66690
 1393  H   0.61641
 1394  C   1.08212   0.82834   0.76398   0.79209
 1395  O   1.88734   1.29202   1.70664   1.67694
 1396  N   1.54290   1.22791   1.27104   1.47587
 1397  H   0.64935
 1398  C   1.07062   0.98372   1.04044   1.07612
 1399  H   0.84401
 1400  H   0.80884
 1401  C   1.07033   0.85096   0.72015   0.75164
 1402  O   1.88498   1.70094   1.45758   1.55955
 1403  N   1.55348   1.14729   1.51370   1.33246
 1404  H   0.67990
 1405  C   1.07064   0.82935   0.98735   1.12880
 1406  H   0.81455
 1407  C   1.05326   1.16412   0.99000   1.05221
 1408  H   0.83939
 1409  H   0.83623
 1410  C   1.05978   1.20536   1.01208   1.13828
 1411  H   0.84294
 1412  H   0.82622
 1413  C   1.06690   0.72352   0.72082   0.72857
 1414  O   1.88772   1.47223   1.82271   1.63596
 1415  O   1.88500   1.51806   1.58627   1.81431
 1416  C   1.08674   0.77111   0.86246   0.75457
 1417  O   1.88733   1.64846   1.65297   1.40940
 1418  N   1.54583   1.31032   1.19201   1.47857
 1419  H   0.65324
 1420  C   1.07214   1.06264   0.88113   1.00756
 1421  H   0.84364
 1422  C   1.05448   1.01874   1.03230   0.97096
 1423  H   0.83623
 1424  C   1.05591   1.17741   1.04870   1.19322
 1425  H   0.84544
 1426  H   0.83588
 1427  H   0.83799
 1428  C   1.05456   1.18127   1.16758   1.06143
 1429  H   0.84080
 1430  H   0.83987
 1431  H   0.85200
 1432  C   1.07565   0.77111   0.73157   0.84217
 1433  O   1.88368   1.36372   1.63745   1.76937
 1434  N   1.53826   1.27318   1.47289   1.21101
 1435  H   0.66888
 1436  C   1.07709   1.00709   1.05459   0.86812
 1437  H   0.82261
 1438  C   1.06064   1.02669   1.01608   0.97684
 1439  H   0.84041
 1440  C   1.05417   1.18414   1.09808   1.12137
 1441  H   0.84119
 1442  H   0.84069
 1443  H   0.85072
 1444  C   1.05738   1.18968   1.16666   1.05252
 1445  H   0.84620
 1446  H   0.83547
 1447  H   0.83894
 1448  C   1.08148   0.80670   0.78620   0.75095
 1449  O   1.88312   1.81176   1.47373   1.46046
 1450  N   1.53599   1.23690   1.43131   1.31655
 1451  H   0.66460
 1452  C   1.07959   0.90432   0.96812   1.14830
 1453  H   0.80514
 1454  C   1.07971   0.93535   0.82464   0.98309
 1455  H   0.86675
 1456  C   1.05744   1.09504   1.13576   1.19620
 1457  H   0.82483
 1458  H   0.82206
 1459  H   0.84144
 1460  O   1.84758   1.47779   1.49379   1.78181
 1461  H   0.64866
 1462  C   1.07072   0.75361   0.82655   0.79805
 1463  O   1.88055   1.50730   1.88270   1.36456
 1464  N   1.53714   1.55013   1.12170   1.29444
 1465  H   0.65698
 1466  C   1.05411   1.16773   0.87320   1.13579
 1467  H   0.83027
 1468  H   0.83679
 1469  H   0.85129
 1470  H   0.82730
 1471  C   1.10847   0.72192   0.77568   0.90299
 1472  O   1.87917   1.50028   1.39719   1.89102
 1473  N   1.54806   1.50781   1.35865   1.13686
 1474  H   0.67053
 1475  C   1.07820   1.08305   1.04073   0.80191
 1476  H   0.80365
 1477  C   1.05904   1.13430   0.99967   1.10168
 1478  H   0.81858
 1479  H   0.82215
 1480  C   1.06603   0.97586   0.99262   1.00492
 1481  C   1.08223   0.99072   1.02514   1.00500
 1482  H   0.83758
 1483  C   1.07635   1.10499   1.04964   1.06607
 1484  H   0.82041
 1485  C   1.07248   0.88650   0.88221   0.88003
 1486  O   1.83870   1.35490   1.61287   1.73272
 1487  H   0.61922
 1488  C   1.07859   0.98863   1.09950   1.09648
 1489  H   0.82130
 1490  C   1.08810   1.07858   0.97916   0.96945
 1491  H   0.83526
 1492  C   1.08086   0.79998   0.76889   0.79198
 1493  O   1.88630   1.81390   1.69947   1.28038
 1494  N   1.53471   1.25587   1.50895   1.18458
 1495  H   0.67091
 1496  C   1.06143   0.92034   1.08954   1.16676
 1497  H   0.83445
 1498  H   0.82973
 1499  H   0.83851
 1500  H   0.82500
 1501  C   1.10799   0.78631   0.88384   0.71626
 1502  O   1.88013   1.43036   1.87072   1.50906
 1503  N   1.55065   1.37513   1.18538   1.44526
 1504  H   0.64434
 1505  C   1.07868   0.96571   0.86314   1.12896
 1506  H   0.81505
 1507  C   1.05975   0.97986   0.99675   1.07641
 1508  H   0.84639
 1509  C   1.05205   1.15823   1.06254   1.17605
 1510  H   0.84452
 1511  H   0.84457
 1512  H   0.84168
 1513  C   1.04779   0.99997   1.12970   1.08504
 1514  H   0.86669
 1515  H   0.85358
 1516  C   1.04901   1.11599   1.12963   1.14944
 1517  H   0.85862
 1518  H   0.85761
 1519  H   0.84110
 1520  C   1.07237   0.85960   0.73792   0.75018
 1521  O   1.87626   1.57614   1.55611   1.67371
 1522  N   1.54215   1.18494   1.41746   1.37457
 1523  H   0.66209
 1524  C   1.07135   0.87894   1.16323   1.10823
 1525  H   0.84315
 1526  H   0.83233
 1527  H   0.83425
 1528  H   0.82778
 1529  C   1.10757   0.84810   0.73305   0.82096
 1530  O   1.88537   1.81623   1.62604   1.36631
 1531  N   1.53783   1.25350   1.40334   1.30550
 1532  H   0.64773
 1533  C   1.05910   0.89177   1.04046   1.02406
 1534  H   0.81977
 1535  C   1.06063   1.03208   1.11431   1.11516
 1536  H   0.82463
 1537  H   0.84713
 1538  C   1.04449   0.99040   0.96358   1.05938
 1539  H   0.88120
 1540  C   1.05460   1.16354   1.06794   1.18090
 1541  H   0.83746
 1542  H   0.84770
 1543  H   0.85401
 1544  C   1.05255   1.12338   1.17245   1.10865
 1545  H   0.85734
 1546  H   0.84740
 1547  H   0.84075
 1548  C   1.07865   0.72940   0.86485   0.77484
 1549  O   1.88190   1.57525   1.45127   1.73508
 1550  N   1.53996   1.57319   1.21233   1.19371
 1551  H   0.66186
 1552  C   1.07188   1.01899   0.93488   0.96181
 1553  H   0.81154
 1554  C   1.05671   1.17078   1.07956   0.99162
 1555  H   0.82411
 1556  H   0.82588
 1557  C   1.05681   1.12995   1.08789   1.03627
 1558  H   0.85330
 1559  H   0.82416
 1560  C   1.06363   1.15818   0.94491   0.90192
 1561  H   0.81633
 1562  H   0.83541
 1563  N   1.52415   1.16147   1.42471   1.39818
 1564  H   0.63976
 1565  C   0.99140   0.79131   0.81235   0.81838
 1566  N   1.51719   1.11637   1.46809   1.48664
 1567  H   0.65576
 1568  H   0.63930
 1569  N   1.50867   1.25120   1.39993   1.41137
 1570  H   0.64203
 1571  H   0.64050
 1572  C   1.08172   0.87174   0.77064   0.74334
 1573  O   1.88708   1.61020   1.60146   1.53085
 1574  N   1.53971   1.17485   1.27111   1.51442
 1575  H   0.65665
 1576  C   1.07445   0.85629   1.08621   1.03959
 1577  H   0.82240
 1578  C   1.06139   1.16460   1.09822   0.98345
 1579  H   0.84192
 1580  H   0.83811
 1581  C   1.04770   1.08171   0.96084   0.94833
 1582  H   0.86928
 1583  C   1.05596   1.17131   1.16287   1.07740
 1584  H   0.85472
 1585  H   0.86157
 1586  H   0.84643
 1587  C   1.05688   1.15866   1.09148   1.15808
 1588  H   0.85184
 1589  H   0.86100
 1590  H   0.84336
 1591  C   1.08284   0.71502   0.76194   0.70284
 1592  O   1.88400   1.46761   1.86977   1.62351
 1593  O   1.88771   1.54662   1.59335   1.80238

 **********************
 *                    *
 * JOB ENDED NORMALLY *
 *                    *
 **********************



 TOTAL JOB TIME:            39.73 SECONDS

 == MOPAC DONE ==
