 *******************************************************************************
 **                                                                           **
 **                              MOPAC v23.2.2                                **
 **                                                                           **
 *******************************************************************************
 **          Digital Object Identifier (DOI): 10.5281/zenodo.6511958          **
 **    Visit the DOI location for information on how to cite this program.    **
 *******************************************************************************

                              PM7 CALCULATION RESULTS

 *******************************************************************************
 *  CALCULATION DONE: (MAX THREADS = 12)             Tue Jan 27 16:04:36 2026  *
 *  PM7        - The PM7 Hamiltonian to be used
 *  MOZYME     - USE LOCALIZED M.O.s IN SOLVING THE SCF EQUATIONS
 *
 *
 *
 *                 CHARGE ON SYSTEM = +2
 *
 *
 *
 *  EPS=78.4   - USE ANDREAS KLAMT'S COSMO IMPLICIT SOLVATION MODEL
 *  1SCF       - DO 1 SCF AND THEN STOP 
 *  T=         - A TIME OF 172800.0 SECONDS REQUESTED
 *  DUMP=N     - RESTART FILE WRITTEN EVERY 7200.0 SECONDS REQUESTED
 *******************************************************************************
PM7 1SCF MOZYME CHARGE=2 EPS=78.4


   ATOM   CHEMICAL          X               Y               Z
  NUMBER   SYMBOL      (ANGSTROMS)     (ANGSTROMS)     (ANGSTROMS)

     1       H         71.69100000  *  165.23700000  * -45.36000000  *
     2       C         70.72700000  *  165.64400000  * -45.02500000  *
     3       O         70.67100000  *  166.69300000  * -44.40000000  *
     4       N         69.64800000  *  164.94600000  * -45.35400000  *
     5       H         69.74300000  *  164.08600000  * -45.86500000  *
     6       C         68.31800000  *  165.37700000  * -44.95100000  *
     7       H         68.30400000  *  166.44500000  * -44.75000000  *
     8       C         67.27900000  *  165.08100000  * -46.05800000  *
     9       H         67.27200000  *  164.02200000  * -46.29800000  *
    10       C         65.89200000  *  165.46600000  * -45.59200000  *
    11       H         65.46400000  *  166.22900000  * -46.24500000  *
    12       H         65.23700000  *  164.60600000  * -45.62700000  *
    13       H         65.87600000  *  165.89500000  * -44.58400000  *
    14       C         67.63700000  *  165.85600000  * -47.31700000  *
    15       H         68.59400000  *  165.52900000  * -47.70800000  *
    16       H         66.87900000  *  165.66900000  * -48.07700000  *
    17       H         67.68800000  *  166.92100000  * -47.10100000  *
    18       C         67.91500000  *  164.66400000  * -43.65700000  *
    19       O         67.55300000  *  165.30600000  * -42.67600000  *
    20       N         67.98400000  *  163.33800000  * -43.65800000  *
    21       H         68.28400000  *  162.85200000  * -44.48600000  *
    22       C         67.62300000  *  162.54400000  * -42.48700000  *
    23       H         67.90600000  *  163.07600000  * -41.58100000  *
    24       C         66.12800000  *  162.23500000  * -42.45900000  *
    25       H         65.92600000  *  161.47400000  * -43.20900000  *
    26       H         65.88500000  *  161.80700000  * -41.48800000  *
    27       C         65.21300000  *  163.39800000  * -42.74000000  *
    28       H         65.33100000  *  164.15700000  * -41.96400000  *
    29       H         65.45900000  *  163.81400000  * -43.69700000  *
    30       C         63.76600000  *  162.97200000  * -42.82400000  *
    31       O         63.44700000  *  162.11400000  * -43.67900000  *
    32       O         62.94800000  *  163.49400000  * -42.03400000  *
    33       C         68.34700000  *  161.22200000  * -42.57700000  *
    34       O         68.73000000  *  160.78800000  * -43.66100000  *
    35       N         68.52400000  *  160.57500000  * -41.43500000  *
    36       H         68.03000000  *  160.89100000  * -40.60600000  *
    37       C         69.17300000  *  159.28200000  * -41.42100000  *
    38       H         69.95100000  *  159.22100000  * -42.17800000  *
    39       C         69.75600000  *  159.01000000  * -40.03200000  *
    40       H         70.21900000  *  159.94300000  * -39.71800000  *
    41       H         68.96300000  *  158.79100000  * -39.31600000  *
    42       C         70.79800000  *  157.89600000  * -39.98300000  *
    43       H         70.31100000  *  156.94100000  * -40.17400000  *
    44       H         71.53800000  *  158.07300000  * -40.76900000  *
    45       C         71.50100000  *  157.83200000  * -38.61800000  *
    46       H         70.74900000  *  157.59000000  * -37.86000000  *
    47       H         72.23100000  *  157.01800000  * -38.63800000  *
    48       C         72.18600000  *  159.16200000  * -38.26900000  *
    49       H         72.83200000  *  159.42500000  * -39.10900000  *
    50       H         71.41200000  *  159.93100000  * -38.15600000  *
    51       N         73.00000000  *  159.10500000  * -37.02500000  *
    52       H         73.70000000  *  158.37000000  * -37.07400000  *
    53       H         73.43800000  *  159.98800000  * -36.79300000  *
    54       H         72.39100000  *  158.85400000  * -36.25100000  *
    55       C         68.06200000  *  158.28700000  * -41.74800000  *
    56       O         67.16300000  *  158.08100000  * -40.94600000  *
    57       N         68.03400000  *  157.72000000  * -42.95800000  *
    58       H         68.83400000  *  157.85200000  * -43.55900000  *
    59       C         66.99700000  *  156.74600000  * -43.36300000  *
    60       H         66.02600000  *  157.24200000  * -43.33000000  *
    61       C         67.21200000  *  156.22600000  * -44.80300000  *
    62       H         68.27100000  *  156.01400000  * -44.94700000  *
    63       C         66.41700000  *  154.93700000  * -45.06500000  *
    64       H         65.36600000  *  155.08400000  * -44.81000000  *
    65       H         66.48300000  *  154.67600000  * -46.10900000  *
    66       H         66.82200000  *  154.09900000  * -44.49800000  *
    67       C         66.77100000  *  157.30300000  * -45.80700000  *
    68       H         65.68200000  *  157.36400000  * -45.82800000  *
    69       H         67.14600000  *  158.25600000  * -45.45000000  *
    70       C         67.29200000  *  157.08400000  * -47.23500000  *
    71       H         66.85200000  *  156.19400000  * -47.67400000  *
    72       H         67.02100000  *  157.93400000  * -47.85800000  *
    73       H         68.37500000  *  156.98400000  * -47.23000000  *
    74       C         66.92200000  *  155.58600000  * -42.37100000  *
    75       O         65.83900000  *  155.22800000  * -41.90300000  *
    76       N         68.07500000  *  154.99100000  * -42.06900000  *
    77       H         68.94000000  *  155.34500000  * -42.46200000  *
    78       C         68.13400000  *  153.81200000  * -41.22500000  *
    79       H         67.67700000  *  154.04200000  * -40.26100000  *
    80       H         67.56400000  *  153.00900000  * -41.69400000  *
    81       C         69.54200000  *  153.30400000  * -40.97100000  *
    82       O         70.54200000  *  153.78900000  * -41.50700000  *
    83       N         69.58200000  *  152.29200000  * -40.11900000  *
    84       H         68.70100000  *  151.93800000  * -39.77400000  *
    85       C         70.78800000  *  151.72200000  * -39.54100000  *
    86       H         71.63500000  *  152.38200000  * -39.73300000  *
    87       C         70.58100000  *  151.63000000  * -38.01900000  *
    88       H         69.72300000  *  150.99200000  * -37.80500000  *
    89       H         71.47100000  *  151.19300000  * -37.58400000  *
    90       C         70.37300000  *  153.01300000  * -37.37200000  *
    91       H         71.22700000  *  153.64700000  * -37.62300000  *
    92       H         69.48000000  *  153.48400000  * -37.78900000  *
    93       C         70.21200000  *  152.93000000  * -35.84600000  *
    94       O         69.32700000  *  152.19100000  * -35.35700000  *
    95       O         70.94000000  *  153.64800000  * -35.12200000  *
    96       C         71.05700000  *  150.37800000  * -40.23400000  *
    97       O         70.45000000  *  149.35500000  * -39.90800000  *
    98       N         71.85300000  *  150.42400000  * -41.30700000  *
    99       H         72.38200000  *  151.26800000  * -41.48400000  *
   100       C         71.90200000  *  149.37800000  * -42.33300000  *
   101       H         70.89200000  *  149.00900000  * -42.51500000  *
   102       H         72.25900000  *  149.82700000  * -43.26000000  *
   103       C         72.79400000  *  148.17600000  * -42.00800000  *
   104       O         73.33000000  *  148.02800000  * -40.91200000  *
   105       N         72.98100000  *  147.31200000  * -43.00700000  *
   106       H         72.48300000  *  147.46300000  * -43.87400000  *
   107       C         73.81300000  *  146.09300000  * -42.93500000  *
   108       H         73.51600000  *  145.52400000  * -42.05300000  *
   109       C         73.60000000  *  145.20400000  * -44.17200000  *
   110       H         74.45900000  *  144.54600000  * -44.31200000  *
   111       C         72.36400000  *  144.33700000  * -43.99200000  *
   112       H         71.47700000  *  144.96700000  * -43.93400000  *
   113       H         72.28500000  *  143.66100000  * -44.84300000  *
   114       H         72.46900000  *  143.73700000  * -43.08800000  *
   115       O         73.42400000  *  146.00000000  * -45.32700000  *
   116       H         72.71000000  *  145.56600000  * -45.85900000  *
   117       C         75.31100000  *  146.33800000  * -42.79300000  *
   118       O         75.95200000  *  145.56400000  * -42.09600000  *
   119       N         75.86100000  *  147.38500000  * -43.42300000  *
   120       H         75.24100000  *  147.93300000  * -43.99500000  *
   121       C         77.31400000  *  147.66100000  * -43.49600000  *
   122       H         77.82000000  *  147.10200000  * -42.70800000  *
   123       C         77.88200000  *  147.17000000  * -44.84500000  *
   124       H         77.56600000  *  147.86100000  * -45.62500000  *
   125       H         78.97200000  *  147.21300000  * -44.80300000  *
   126       C         77.50100000  *  145.76200000  * -45.25700000  *
   127       C         77.76100000  *  144.68700000  * -44.38900000  *
   128       H         78.23600000  *  144.86200000  * -43.43200000  *
   129       C         77.37600000  *  143.38700000  * -44.74900000  *
   130       H         77.55400000  *  142.57000000  * -44.07000000  *
   131       C         76.76400000  *  143.14600000  * -45.99600000  *
   132       O         76.46900000  *  141.87300000  * -46.36200000  *
   133       H         77.07300000  *  141.27200000  * -45.89800000  *
   134       C         76.50900000  *  144.22100000  * -46.87000000  *
   135       H         76.02900000  *  144.04300000  * -47.81800000  *
   136       C         76.88400000  *  145.52600000  * -46.50200000  *
   137       H         76.70300000  *  146.34300000  * -47.18500000  *
   138       C         77.68800000  *  149.14100000  * -43.27600000  *
   139       O         78.77400000  *  149.56700000  * -43.66600000  *
   140       N         76.79400000  *  149.94400000  * -42.69100000  *
   141       H         75.93500000  *  149.55000000  * -42.33400000  *
   142       C         77.00300000  *  151.38000000  * -42.47400000  *
   143       H         77.58500000  *  151.53000000  * -41.56700000  *
   144       H         77.57400000  *  151.78300000  * -43.30100000  *
   145       C         75.69400000  *  152.16200000  * -42.34300000  *
   146       O         74.63100000  *  151.56200000  * -42.15700000  *
   147       N         75.75500000  *  153.49500000  * -42.44900000  *
   148       H         76.58800000  *  153.89400000  * -42.85900000  *
   149       C         74.59200000  *  154.32600000  * -42.21200000  *
   150       H         73.82600000  *  153.78000000  * -41.65800000  *
   151       C         74.95900000  *  155.54800000  * -41.37000000  *
   152       H         75.70700000  *  156.13900000  * -41.89300000  *
   153       C         73.73100000  *  156.40900000  * -41.13300000  *
   154       H         72.94300000  *  155.80300000  * -40.68200000  *
   155       H         73.98600000  *  157.21200000  * -40.45000000  *
   156       H         73.36800000  *  156.84900000  * -42.06500000  *
   157       C         75.54500000  *  155.09600000  * -40.05300000  *
   158       H         76.46000000  *  154.52800000  * -40.19800000  *
   159       H         75.77700000  *  155.95300000  * -39.42300000  *
   160       H         74.80500000  *  154.48400000  * -39.53200000  *
   161       C         74.01900000  *  154.79200000  * -43.53700000  *
   162       O         74.76100000  *  155.18400000  * -44.43700000  *
   163       N         72.69700000  *  154.65100000  * -43.67600000  *
   164       H         72.16800000  *  154.32100000  * -42.87400000  *
   165       C         71.90900000  *  155.08900000  * -44.83600000  *
   166       H         72.56600000  *  155.14700000  * -45.70200000  *
   167       C         70.76400000  *  154.10300000  * -45.16700000  *
   168       H         69.93200000  *  154.27300000  * -44.48400000  *
   169       C         70.26900000  *  154.34500000  * -46.59800000  *
   170       H         71.05800000  *  154.11300000  * -47.31400000  *
   171       H         69.40700000  *  153.70800000  * -46.80200000  *
   172       H         69.97100000  *  155.38300000  * -46.72700000  *
   173       C         71.15700000  *  152.62500000  * -45.03100000  *
   174       H         72.05600000  *  152.42200000  * -45.60400000  *
   175       H         71.33000000  *  152.38100000  * -43.98300000  *
   176       H         70.34600000  *  151.99100000  * -45.39500000  *
   177       C         71.33200000  *  156.47700000  * -44.55400000  *
   178       O         70.57800000  *  156.62400000  * -43.58900000  *
   179       N         71.62500000  *  157.49000000  * -45.37400000  *
   180       H         72.23900000  *  157.32200000  * -46.16900000  *
   181       C         71.01800000  *  158.79600000  * -45.21900000  *
   182       H         70.37900000  *  158.84300000  * -44.33800000  *
   183       C         72.10000000  *  159.86100000  * -45.06900000  *
   184       H         72.79900000  *  159.78100000  * -45.90500000  *
   185       H         71.63400000  *  160.84400000  * -45.14300000  *
   186       C         72.87100000  *  159.84300000  * -43.76800000  *
   187       C         72.34700000  *  160.43100000  * -42.61900000  *
   188       H         71.37700000  *  160.90600000  * -42.66800000  *
   189       C         73.06400000  *  160.45200000  * -41.42500000  *
   190       H         72.63300000  *  160.94600000  * -40.56800000  *
   191       C         74.33000000  *  159.87400000  * -41.37100000  *
   192       O         75.04700000  *  159.90100000  * -40.18700000  *
   193       H         74.69700000  *  160.54100000  * -39.56800000  *
   194       C         74.87500000  *  159.27800000  * -42.50300000  *
   195       H         75.78500000  *  158.71900000  * -42.41900000  *
   196       C         74.14000000  *  159.26700000  * -43.69600000  *
   197       H         74.51800000  *  158.73300000  * -44.56500000  *
   198       C         70.16700000  *  159.17400000  * -46.42900000  *
   199       O         70.41800000  *  158.72400000  * -47.55600000  *
   200       N         69.03000000  *  159.83500000  * -46.21200000  *
   201       H         68.84400000  *  160.14100000  * -45.26400000  *
   202       C         68.29500000  *  160.51400000  * -47.28000000  *
   203       H         68.28300000  *  159.91200000  * -48.19000000  *
   204       C         66.85200000  *  160.84500000  * -46.84400000  *
   205       H         66.33200000  *  159.92700000  * -46.58600000  *
   206       H         66.87300000  *  161.48200000  * -45.95800000  *
   207       C         66.04500000  *  161.53900000  * -47.95300000  *
   208       H         66.52000000  *  162.48400000  * -48.22200000  *
   209       H         66.02100000  *  160.89500000  * -48.83300000  *
   210       C         64.60900000  *  161.81600000  * -47.48000000  *
   211       H         64.14900000  *  160.88100000  * -47.15300000  *
   212       H         64.63900000  *  162.50400000  * -46.63500000  *
   213       C         63.77000000  *  162.42200000  * -48.61400000  *
   214       H         64.29300000  *  163.30100000  * -49.00600000  *
   215       H         63.69600000  *  161.68400000  * -49.42100000  *
   216       N         62.41100000  *  162.81000000  * -48.15100000  *
   217       H         62.45400000  *  163.51300000  * -47.42700000  *
   218       H         61.86300000  *  163.19800000  * -48.90800000  *
   219       H         61.90300000  *  162.02000000  * -47.78000000  *
   220       C         69.10500000  *  161.76600000  * -47.50900000  *
   221       O         69.33900000  *  162.49900000  * -46.55100000  *
   222       N         69.55500000  *  162.00600000  * -48.72500000  *
   223       H         69.34400000  *  161.34200000  * -49.46700000  *
   224       C         70.34900000  *  163.18200000  * -49.01700000  *
   225       H         70.22500000  *  163.93500000  * -48.24000000  *
   226       C         71.81400000  *  162.79200000  * -49.07000000  *
   227       H         71.97800000  *  162.06700000  * -49.86400000  *
   228       H         72.42900000  *  163.67700000  * -49.23900000  *
   229       H         72.10500000  *  162.33200000  * -48.12600000  *
   230       C         69.94400000  *  163.83800000  * -50.32200000  *
   231       O         69.22100000  *  163.25100000  * -51.12800000  *
   232       N         70.40700000  *  165.06400000  * -50.52400000  *
   233       H         70.93200000  *  165.53000000  * -49.79600000  *
   234       C         70.10800000  *  165.77900000  * -51.74600000  *
   235       H         69.54100000  *  165.15900000  * -52.44400000  *
   236       H         69.52200000  *  166.69100000  * -51.53000000  *
   237       H         71.05900000  *  166.04700000  * -52.23900000  *
   238       H         68.08600000  *  164.80700000  * -56.55000000  *
   239       C         68.21200000  *  164.39600000  * -55.53600000  *
   240       O         69.28600000  *  164.50800000  * -54.94200000  *
   241       N         67.13500000  *  163.82300000  * -55.01100000  *
   242       H         66.34000000  *  163.66800000  * -55.61500000  *
   243       C         67.13600000  *  163.21200000  * -53.68800000  *
   244       H         67.86300000  *  163.70700000  * -53.05000000  *
   245       C         65.75500000  *  163.32300000  * -53.02900000  *
   246       H         64.97700000  *  163.06900000  * -53.75000000  *
   247       C         65.64800000  *  162.36600000  * -51.85200000  *
   248       H         66.47200000  *  162.51800000  * -51.15200000  *
   249       H         64.69700000  *  162.53800000  * -51.34700000  *
   250       H         65.65200000  *  161.33900000  * -52.20000000  *
   251       C         65.54000000  *  164.75000000  * -52.56600000  *
   252       H         65.62600000  *  165.42400000  * -53.41600000  *
   253       H         64.53500000  *  164.85100000  * -52.15900000  *
   254       H         66.28400000  *  165.00300000  * -51.81000000  *
   255       C         67.52600000  *  161.76000000  * -53.84700000  *
   256       O         66.97900000  *  161.02800000  * -54.68200000  *
   257       N         68.49600000  *  161.34900000  * -53.04800000  *
   258       H         68.91100000  *  161.99700000  * -52.39100000  *
   259       C         69.01100000  *  159.99200000  * -53.10200000  *
   260       H         68.34600000  *  159.34100000  * -53.67900000  *
   261       C         70.37400000  *  159.97400000  * -53.81600000  *
   262       H         70.77500000  *  158.96500000  * -53.87500000  *
   263       C         70.21400000  *  160.50700000  * -55.21300000  *
   264       H         69.95700000  *  161.56600000  * -55.19000000  *
   265       H         71.15100000  *  160.39100000  * -55.75600000  *
   266       H         69.44200000  *  159.95000000  * -55.73600000  *
   267       C         71.37900000  *  160.85000000  * -53.05700000  *
   268       H         71.56500000  *  160.44500000  * -52.06400000  *
   269       H         72.31500000  *  160.84900000  * -53.61300000  *
   270       H         71.03600000  *  161.88400000  * -52.98400000  *
   271       C         69.19200000  *  159.37200000  * -51.72900000  *
   272       O         69.02000000  *  160.03600000  * -50.68600000  *
   273       N         69.37800000  *  158.05800000  * -51.70100000  *
   274       H         69.45200000  *  157.56200000  * -52.58500000  *
   275       C         69.75700000  *  157.32900000  * -50.50600000  *
   276       H         69.48600000  *  157.90200000  * -49.62100000  *
   277       C         68.99200000  *  156.01500000  * -50.44500000  *
   278       H         69.20200000  *  155.42900000  * -51.33600000  *
   279       H         69.29400000  *  155.45200000  * -49.56100000  *
   280       H         67.92500000  *  156.22600000  * -50.38600000  *
   281       C         71.27400000  *  157.14200000  * -50.53600000  *
   282       O         71.80400000  *  156.46300000  * -51.42200000  *
   283       N         71.97000000  *  157.79100000  * -49.60300000  *
   284       H         71.44500000  *  158.28300000  * -48.88900000  *
   285       C         73.41300000  *  157.73400000  * -49.53500000  *
   286       H         73.80300000  *  157.43200000  * -50.50200000  *
   287       C         73.96100000  *  159.11400000  * -49.18200000  *
   288       H         73.49200000  *  159.84000000  * -49.85100000  *
   289       H         73.62800000  *  159.35800000  * -48.16900000  *
   290       C         75.47300000  *  159.31600000  * -49.26600000  *
   291       H         75.96900000  *  158.63700000  * -48.57100000  *
   292       C         75.94900000  *  159.02000000  * -50.68400000  *
   293       H         75.44100000  *  159.71800000  * -51.34800000  *
   294       H         77.02400000  *  159.18800000  * -50.76300000  *
   295       H         75.74700000  *  157.98700000  * -50.96800000  *
   296       C         75.80400000  *  160.74000000  * -48.87900000  *
   297       H         75.43700000  *  160.94600000  * -47.87600000  *
   298       H         76.88200000  *  160.87900000  * -48.92200000  *
   299       H         75.32000000  *  161.42900000  * -49.57600000  *
   300       C         73.82100000  *  156.71600000  * -48.48500000  *
   301       O         73.39600000  *  156.78100000  * -47.33400000  *
   302       N         74.66100000  *  155.76700000  * -48.88500000  *
   303       H         74.90600000  *  155.74200000  * -49.87200000  *
   304       C         75.12600000  *  154.66300000  * -48.04700000  *
   305       H         74.60900000  *  154.68800000  * -47.08600000  *
   306       C         74.78200000  *  153.34900000  * -48.77900000  *
   307       H         74.11200000  *  153.55300000  * -49.61800000  *
   308       H         75.68500000  *  152.90200000  * -49.19000000  *
   309       C         74.08900000  *  152.30600000  * -47.90500000  *
   310       H         73.16000000  *  152.72400000  * -47.51800000  *
   311       H         73.83200000  *  151.47200000  * -48.55400000  *
   312       C         74.98100000  *  151.82800000  * -46.74600000  *
   313       H         76.02100000  *  151.79000000  * -47.07200000  *
   314       H         74.92000000  *  152.55800000  * -45.93400000  *
   315       C         74.56200000  *  150.44900000  * -46.20800000  *
   316       H         75.11500000  *  150.27700000  * -45.27600000  *
   317       H         73.49500000  *  150.49000000  * -45.95200000  *
   318       N         74.83100000  *  149.35100000  * -47.19400000  *
   319       H         75.80200000  *  149.33300000  * -47.49200000  *
   320       H         74.59100000  *  148.43600000  * -46.82200000  *
   321       H         74.25800000  *  149.47000000  * -48.03100000  *
   322       C         76.62200000  *  154.83400000  * -47.79200000  *
   323       O         77.41300000  *  154.62700000  * -48.70400000  *
   324       N         77.01700000  *  155.22600000  * -46.58100000  *
   325       H         76.29800000  *  155.26800000  * -45.86500000  *
   326       C         78.42200000  *  155.28900000  * -46.15900000  *
   327       H         79.06600000  *  155.59300000  * -46.98900000  *
   328       C         78.56700000  *  156.26000000  * -44.97900000  *
   329       H         78.02700000  *  155.87500000  * -44.10900000  *
   330       H         79.62500000  *  156.33900000  * -44.73000000  *
   331       C         78.01500000  *  157.64300000  * -45.34000000  *
   332       H         78.45100000  *  157.95800000  * -46.27300000  *
   333       H         76.93600000  *  157.57500000  * -45.50000000  *
   334       C         78.25100000  *  158.72500000  * -44.27900000  *
   335       H         77.97800000  *  159.68000000  * -44.73200000  *
   336       H         77.56000000  *  158.53300000  * -43.46900000  *
   337       C         79.67700000  *  158.85000000  * -43.70900000  *
   338       H         80.38400000  *  158.36300000  * -44.39700000  *
   339       H         79.95000000  *  159.91100000  * -43.68600000  *
   340       N         79.78800000  *  158.26900000  * -42.33500000  *
   341       H         79.63700000  *  157.26100000  * -42.37000000  *
   342       H         80.69600000  *  158.42600000  * -41.93200000  *
   343       H         79.10400000  *  158.64600000  * -41.70100000  *
   344       C         78.82300000  *  153.89100000  * -45.72900000  *
   345       O         78.09100000  *  153.31500000  * -44.93700000  *
   346       N         79.90700000  *  153.32000000  * -46.24700000  *
   347       H         80.40500000  *  153.76400000  * -47.01000000  *
   348       C         80.34300000  *  152.02200000  * -45.76800000  *
   349       H         79.49500000  *  151.49800000  * -45.35900000  *
   350       C         80.94400000  *  151.18600000  * -46.89500000  *
   351       H         81.78600000  *  151.78200000  * -47.16900000  *
   352       C         81.42400000  *  149.85200000  * -46.34500000  *
   353       H         80.65600000  *  149.35200000  * -45.75200000  *
   354       H         81.67900000  *  149.19900000  * -47.17900000  *
   355       H         82.34500000  *  149.95700000  * -45.76100000  *
   356       C         79.89700000  *  150.97600000  * -47.99700000  *
   357       H         79.60200000  *  151.87000000  * -48.50000000  *
   358       H         80.28300000  *  150.30500000  * -48.75000000  *
   359       C         78.59100000  *  150.36100000  * -47.52600000  *
   360       H         78.17700000  *  150.90100000  * -46.69000000  *
   361       H         77.89400000  *  150.33700000  * -48.36300000  *
   362       H         78.77100000  *  149.33300000  * -47.20900000  *
   363       C         81.33300000  *  152.07100000  * -44.61400000  *
   364       O         82.16700000  *  152.98000000  * -44.51900000  *
   365       N         81.21100000  *  151.07100000  * -43.74300000  *
   366       H         80.50300000  *  150.36100000  * -43.92800000  *
   367       C         82.04400000  *  150.90200000  * -42.55200000  *
   368       H         81.47500000  *  151.18100000  * -41.66300000  *
   369       H         82.35800000  *  149.86100000  * -42.45900000  *
   370       H         82.94700000  *  151.51400000  * -42.62000000  *
   371       H         81.25700000  *  144.04600000  * -57.89900000  *
   372       C         80.50000000  *  144.84100000  * -57.88800000  *
   373       O         79.71500000  *  144.99000000  * -58.82400000  *
   374       N         80.49900000  *  145.60300000  * -56.79700000  *
   375       H         81.28000000  *  145.52500000  * -56.16600000  *
   376       C         79.57000000  *  146.70600000  * -56.61200000  *
   377       H         78.57500000  *  146.34400000  * -56.42300000  *
   378       C         80.00500000  *  147.61000000  * -55.44200000  *
   379       H         80.89800000  *  148.18000000  * -55.68500000  *
   380       C         78.90600000  *  148.60800000  * -55.12500000  *
   381       H         77.92000000  *  148.14100000  * -55.17600000  *
   382       H         79.04500000  *  148.98700000  * -54.11600000  *
   383       H         78.93800000  *  149.43600000  * -55.83300000  *
   384       C         80.32100000  *  146.76200000  * -54.20900000  *
   385       H         81.19200000  *  146.13400000  * -54.40600000  *
   386       H         80.59400000  *  147.42200000  * -53.38900000  *
   387       C         79.18400000  *  145.87900000  * -53.76500000  *
   388       H         78.77800000  *  145.31100000  * -54.59400000  *
   389       H         79.50900000  *  145.12200000  * -53.06500000  *
   390       H         78.38800000  *  146.48300000  * -53.33500000  *
   391       C         79.54300000  *  147.54500000  * -57.87900000  *
   392       O         78.48200000  *  147.77900000  * -58.45100000  *
   393       N         80.72300000  *  147.98900000  * -58.30900000  *
   394       H         81.55800000  *  147.70100000  * -57.81200000  *
   395       C         80.85900000  *  148.80400000  * -59.51100000  *
   396       H         80.33900000  *  149.74600000  * -59.38600000  *
   397       H         81.92800000  *  148.98500000  * -59.72900000  *
   398       H         80.37800000  *  148.32200000  * -60.38100000  *
   399       H         78.96400000  *  146.08700000  * -61.65600000  *
   400       C         77.87300000  *  146.08700000  * -61.51600000  *
   401       O         77.11500000  *  145.89500000  * -62.46400000  *
   402       N         77.44600000  *  146.31800000  * -60.28000000  *
   403       H         78.13400000  *  146.42500000  * -59.54900000  *
   404       C         76.02800000  *  146.35200000  * -59.94500000  *
   405       H         75.53300000  *  145.47600000  * -60.35900000  *
   406       C         75.84100000  *  146.37400000  * -58.43100000  *
   407       H         76.20500000  *  147.30400000  * -58.01800000  *
   408       H         74.76300000  *  146.35700000  * -58.24200000  *
   409       C         76.47200000  *  145.22200000  * -57.65900000  *
   410       H         77.55000000  *  145.23900000  * -57.74900000  *
   411       C         76.08000000  *  145.34100000  * -56.19200000  *
   412       H         74.99900000  *  145.23000000  * -56.07700000  *
   413       H         76.57300000  *  144.55300000  * -55.62900000  *
   414       H         76.38500000  *  146.30900000  * -55.80100000  *
   415       C         75.99600000  *  143.89000000  * -58.23600000  *
   416       H         76.41500000  *  143.73000000  * -59.22900000  *
   417       H         76.32800000  *  143.07800000  * -57.59100000  *
   418       H         74.90500000  *  143.87400000  * -58.30500000  *
   419       C         75.32200000  *  147.55900000  * -60.54800000  *
   420       O         74.09500000  *  147.56800000  * -60.66200000  *
   421       N         76.08400000  *  148.63100000  * -60.82900000  *
   422       H         77.08200000  *  148.53500000  * -60.67700000  *
   423       C         75.60100000  *  149.83300000  * -61.53400000  *
   424       H         74.83700000  *  150.33500000  * -60.94100000  *
   425       H         76.43800000  *  150.53300000  * -61.75900000  *
   426       H         75.13800000  *  149.54900000  * -62.49200000  *
   427       H         62.79000000  *  145.77200000  * -59.27600000  *
   428       C         63.71000000  *  145.72000000  * -58.67500000  *
   429       O         63.77900000  *  145.02200000  * -57.66400000  *
   430       N         64.72400000  *  146.45200000  * -59.11400000  *
   431       H         64.63800000  *  147.05100000  * -59.92700000  *
   432       C         65.97100000  *  146.53500000  * -58.38100000  *
   433       H         65.88400000  *  146.09200000  * -57.38600000  *
   434       C         67.11600000  *  145.87700000  * -59.11400000  *
   435       H         67.33600000  *  146.42600000  * -60.03000000  *
   436       C         68.35100000  *  145.87800000  * -58.21400000  *
   437       H         68.14700000  *  145.31400000  * -57.31800000  *
   438       H         69.21000000  *  145.44500000  * -58.72400000  *
   439       H         68.64100000  *  146.89000000  * -57.94500000  *
   440       C         66.72800000  *  144.44400000  * -59.47800000  *
   441       H         66.54900000  *  143.87300000  * -58.56400000  *
   442       H         65.81500000  *  144.42400000  * -60.06800000  *
   443       C         67.77400000  *  143.72700000  * -60.29600000  *
   444       H         68.68300000  *  143.57700000  * -59.72200000  *
   445       H         67.37700000  *  142.75300000  * -60.59800000  *
   446       H         68.02300000  *  144.31300000  * -61.18000000  *
   447       C         66.29500000  *  148.01000000  * -58.22000000  *
   448       O         66.21200000  *  148.78000000  * -59.18400000  *
   449       N         66.55000000  *  148.43900000  * -56.98200000  *
   450       H         66.61800000  *  147.75800000  * -56.23100000  *
   451       C         66.89300000  *  149.83400000  * -56.68800000  *
   452       H         66.08000000  *  150.48100000  * -57.01900000  *
   453       C         67.09500000  *  150.04000000  * -55.18200000  *
   454       H         67.86300000  *  149.35500000  * -54.82000000  *
   455       C         67.52200000  *  151.47000000  * -54.84000000  *
   456       H         66.73200000  *  152.17800000  * -55.09400000  *
   457       H         67.73200000  *  151.52100000  * -53.77400000  *
   458       H         68.43000000  *  151.74100000  * -55.37500000  *
   459       C         65.78900000  *  149.76200000  * -54.43500000  *
   460       H         65.52600000  *  148.70900000  * -54.50000000  *
   461       H         65.92400000  *  150.01500000  * -53.39100000  *
   462       H         64.98400000  *  150.36300000  * -54.85300000  *
   463       C         68.15200000  *  150.21000000  * -57.46000000  *
   464       O         69.17900000  *  149.53600000  * -57.34400000  *
   465       N         68.08000000  *  151.28300000  * -58.25100000  *
   466       H         67.22500000  *  151.80400000  * -58.24500000  *
   467       C         69.18900000  *  151.69800000  * -59.08000000  *
   468       H         69.52500000  *  150.81900000  * -59.63900000  *
   469       C         68.73700000  *  152.76800000  * -60.08300000  *
   470       H         67.83400000  *  152.41100000  * -60.57900000  *
   471       H         68.47700000  *  153.68100000  * -59.53700000  *
   472       C         69.79100000  *  153.06900000  * -61.13100000  *
   473       H         70.72100000  *  153.35000000  * -60.64200000  *
   474       H         69.97400000  *  152.16800000  * -61.71600000  *
   475       C         69.35100000  *  154.17900000  * -62.08100000  *
   476       H         68.50200000  *  153.81400000  * -62.66100000  *
   477       H         69.02300000  *  155.05600000  * -61.52200000  *
   478       C         70.49800000  *  154.55900000  * -63.02400000  *
   479       H         71.33900000  *  154.89000000  * -62.40800000  *
   480       H         70.81900000  *  153.66100000  * -63.56600000  *
   481       N         70.11800000  *  155.62600000  * -63.99700000  *
   482       H         69.74700000  *  156.41600000  * -63.48300000  *
   483       H         70.92600000  *  155.93300000  * -64.52500000  *
   484       H         69.41500000  *  155.27800000  * -64.63600000  *
   485       C         70.36000000  *  152.21400000  * -58.25300000  *
   486       O         70.19400000  *  153.07400000  * -57.38700000  *
   487       N         71.53700000  *  151.64500000  * -58.50700000  *
   488       H         71.59600000  *  150.90400000  * -59.18600000  *
   489       C         72.75000000  *  152.07400000  * -57.83600000  *
   490       H         72.53800000  *  152.52600000  * -56.87100000  *
   491       C         73.72700000  *  150.91100000  * -57.67000000  *
   492       H         73.31500000  *  150.22100000  * -56.93700000  *
   493       H         73.77900000  *  150.36900000  * -58.62000000  *
   494       C         75.16700000  *  151.27300000  * -57.28800000  *
   495       H         75.65500000  *  151.80300000  * -58.10000000  *
   496       C         75.18300000  *  152.16500000  * -56.05900000  *
   497       H         74.60800000  *  151.72100000  * -55.25200000  *
   498       H         76.21000000  *  152.29600000  * -55.73500000  *
   499       H         74.78900000  *  153.14000000  * -56.31200000  *
   500       C         75.93300000  *  149.99400000  * -57.01300000  *
   501       H         75.98300000  *  149.42100000  * -57.93300000  *
   502       H         76.94600000  *  150.24200000  * -56.71200000  *
   503       H         75.43500000  *  149.41000000  * -56.23200000  *
   504       C         73.31900000  *  153.11300000  * -58.79500000  *
   505       O         73.76900000  *  152.77900000  * -59.89700000  *
   506       N         73.26700000  *  154.36900000  * -58.37800000  *
   507       H         72.92600000  *  154.57000000  * -57.44900000  *
   508       C         73.73400000  *  155.46600000  * -59.19700000  *
   509       H         73.47500000  *  155.26500000  * -60.23600000  *
   510       C         73.02500000  *  156.74200000  * -58.76000000  *
   511       H         73.45000000  *  157.06300000  * -57.80900000  *
   512       H         73.23600000  *  157.53300000  * -59.48700000  *
   513       C         71.51300000  *  156.60300000  * -58.58700000  *
   514       H         71.27400000  *  155.80900000  * -57.88500000  *
   515       C         70.97400000  *  157.88000000  * -58.01900000  *
   516       H         71.37000000  *  158.74600000  * -58.56000000  *
   517       H         69.88800000  *  157.89100000  * -58.09300000  *
   518       H         71.22100000  *  157.96000000  * -56.96600000  *
   519       C         70.85100000  *  156.29000000  * -59.92300000  *
   520       H         71.28300000  *  155.39700000  * -60.34200000  *
   521       H         69.78900000  *  156.14400000  * -59.75100000  *
   522       H         71.00300000  *  157.12700000  * -60.60700000  *
   523       C         75.24500000  *  155.67800000  * -59.15800000  *
   524       O         75.83900000  *  156.04700000  * -60.17600000  *
   525       N         75.86200000  *  155.44600000  * -57.99600000  *
   526       H         75.29500000  *  155.17900000  * -57.20400000  *
   527       C         77.30800000  *  155.64700000  * -57.82900000  *
   528       H         77.80800000  *  155.40400000  * -58.76600000  *
   529       C         77.60000000  *  157.11700000  * -57.51900000  *
   530       H         76.91700000  *  157.54400000  * -56.80300000  *
   531       H         78.58200000  *  157.17000000  * -57.04800000  *
   532       C         77.65600000  *  157.97500000  * -58.75600000  *
   533       O         78.67800000  *  157.91700000  * -59.48300000  *
   534       O         76.67400000  *  158.70400000  * -59.00000000  *
   535       C         77.97900000  *  154.81700000  * -56.73400000  *
   536       O         77.37100000  *  154.52100000  * -55.70400000  *
   537       N         79.24700000  *  154.47700000  * -56.96600000  *
   538       H         79.69800000  *  154.82400000  * -57.79800000  *
   539       C         80.06100000  *  153.73800000  * -56.00300000  *
   540       H         79.55400000  *  153.69900000  * -55.05200000  *
   541       C         80.36600000  *  152.29800000  * -56.50400000  *
   542       H         79.42700000  *  151.75200000  * -56.56200000  *
   543       C         80.98100000  *  152.34300000  * -57.88400000  *
   544       H         82.06600000  *  152.43300000  * -57.82100000  *
   545       H         80.74600000  *  151.41400000  * -58.37900000  *
   546       H         80.59600000  *  153.14500000  * -58.51000000  *
   547       C         81.29900000  *  151.58800000  * -55.53900000  *
   548       H         80.81100000  *  151.54900000  * -54.57200000  *
   549       H         81.47300000  *  150.57200000  * -55.87800000  *
   550       H         82.25900000  *  152.09200000  * -55.44900000  *
   551       C         81.36500000  *  154.53600000  * -55.81000000  *
   552       O         82.27000000  *  154.48900000  * -56.64700000  *
   553       N         81.45200000  *  155.28200000  * -54.71000000  *
   554       H         80.67600000  *  155.30400000  * -54.06400000  *
   555       C         82.62100000  *  156.11100000  * -54.44300000  *
   556       H         83.20500000  *  156.21800000  * -55.35800000  *
   557       H         82.32200000  *  157.12800000  * -54.14500000  *
   558       H         83.29700000  *  155.73900000  * -53.65600000  *
   559       H         84.58000000  *  155.17100000  * -47.07300000  *
   560       C         84.22500000  *  154.98400000  * -48.09100000  *
   561       O         84.63900000  *  155.65900000  * -49.04200000  *
   562       N         83.35800000  *  153.99100000  * -48.22200000  *
   563       H         83.13600000  *  153.42800000  * -47.41700000  *
   564       C         82.77600000  *  153.65100000  * -49.50600000  *
   565       H         83.37000000  *  154.04700000  * -50.31700000  *
   566       C         82.71900000  *  152.14000000  * -49.66000000  *
   567       H         83.74000000  *  151.87500000  * -49.95700000  *
   568       H         82.64400000  *  151.54600000  * -48.78400000  *
   569       C         81.82600000  *  151.61900000  * -50.77900000  *
   570       H         80.79100000  *  151.88400000  * -50.58700000  *
   571       C         82.25800000  *  152.23100000  * -52.09200000  *
   572       H         83.31100000  *  152.49100000  * -52.08900000  *
   573       H         82.09300000  *  151.51300000  * -52.88400000  *
   574       H         81.65400000  *  153.10900000  * -52.31200000  *
   575       C         81.89900000  *  150.09400000  * -50.82200000  *
   576       H         81.91300000  *  149.66400000  * -49.82700000  *
   577       H         81.05200000  *  149.70600000  * -51.39100000  *
   578       H         82.82500000  *  149.80300000  * -51.32100000  *
   579       C         81.36700000  *  154.23200000  * -49.54800000  *
   580       O         80.51800000  *  153.85700000  * -48.74500000  *
   581       N         81.13100000  *  155.16100000  * -50.46700000  *
   582       H         81.84500000  *  155.34800000  * -51.16200000  *
   583       C         79.82200000  *  155.78100000  * -50.60800000  *
   584       H         79.27400000  *  155.67000000  * -49.68700000  *
   585       C         79.96700000  *  157.27800000  * -50.86800000  *
   586       H         80.42300000  *  157.50400000  * -51.79700000  *
   587       H         78.95400000  *  157.66400000  * -50.98900000  *
   588       C         80.57600000  *  158.04300000  * -49.72300000  *
   589       C         79.79300000  *  158.48000000  * -48.65600000  *
   590       H         78.73500000  *  158.25400000  * -48.66900000  *
   591       C         80.35600000  *  159.18600000  * -47.59400000  *
   592       H         79.75300000  *  159.56200000  * -46.79700000  *
   593       C         81.71600000  *  159.45200000  * -47.58700000  *
   594       O         82.27600000  *  160.12500000  * -46.52100000  *
   595       H         83.20600000  *  160.30800000  * -46.74500000  *
   596       C         82.51400000  *  159.02600000  * -48.63700000  *
   597       H         83.58200000  *  159.23300000  * -48.65000000  *
   598       C         81.94100000  *  158.32800000  * -49.69800000  *
   599       H         82.57400000  *  157.98100000  * -50.50200000  *
   600       C         79.04800000  *  155.15800000  * -51.76500000  *
   601       O         79.54400000  *  155.08000000  * -52.88800000  *
   602       N         77.86500000  *  154.61400000  * -51.49400000  *
   603       H         77.54100000  *  154.63000000  * -50.53300000  *
   604       C         76.98000000  *  154.05500000  * -52.51500000  *
   605       H         77.50600000  *  154.00400000  * -53.46300000  *
   606       C         76.52800000  *  152.62500000  * -52.17200000  *
   607       H         75.83500000  *  152.67000000  * -51.34000000  *
   608       H         75.97900000  *  152.23700000  * -53.03000000  *
   609       C         77.64900000  *  151.63500000  * -51.81800000  *
   610       H         78.14400000  *  151.95000000  * -50.90000000  *
   611       C         77.06000000  *  150.24200000  * -51.60100000  *
   612       H         76.59900000  *  149.88000000  * -52.52200000  *
   613       H         77.84800000  *  149.54900000  * -51.30200000  *
   614       H         76.30600000  *  150.27800000  * -50.81500000  *
   615       C         78.68200000  *  151.53400000  * -52.93400000  *
   616       H         79.21000000  *  152.47900000  * -53.03200000  *
   617       H         79.41000000  *  150.76300000  * -52.68600000  *
   618       H         78.19100000  *  151.29200000  * -53.87700000  *
   619       C         75.78900000  *  154.99100000  * -52.67100000  *
   620       O         75.11100000  *  155.27100000  * -51.67800000  *
   621       N         75.54700000  *  155.50800000  * -53.87800000  *
   622       H         76.14500000  *  155.25500000  * -54.66000000  *
   623       C         74.40900000  *  156.37500000  * -54.09400000  *
   624       H         73.97600000  *  156.70200000  * -53.15000000  *
   625       C         74.83400000  *  157.63700000  * -54.81800000  *
   626       H         75.25500000  *  157.34500000  * -55.76600000  *
   627       C         73.61400000  *  158.52200000  * -55.10900000  *
   628       H         73.11700000  *  158.76900000  * -54.17500000  *
   629       H         73.94100000  *  159.43100000  * -55.61500000  *
   630       H         72.91600000  *  158.00900000  * -55.76200000  *
   631       C         75.84000000  *  158.38200000  * -53.94900000  *
   632       H         75.28100000  *  158.78400000  * -53.13000000  *
   633       H         76.65600000  *  157.75800000  * -53.60500000  *
   634       H         76.26100000  *  159.20400000  * -54.52500000  *
   635       C         73.31400000  *  155.64400000  * -54.85300000  *
   636       O         73.49500000  *  155.22100000  * -55.99400000  *
   637       N         72.19200000  *  155.41600000  * -54.17300000  *
   638       H         72.12400000  *  155.76900000  * -53.22200000  *
   639       C         71.00900000  *  154.75400000  * -54.71700000  *
   640       H         71.26400000  *  154.27800000  * -55.66000000  *
   641       C         70.53100000  *  153.67100000  * -53.74400000  *
   642       H         70.33100000  *  154.13300000  * -52.77800000  *
   643       H         69.58600000  *  153.27900000  * -54.11100000  *
   644       C         71.48500000  *  152.50900000  * -53.54000000  *
   645       C         71.45800000  *  151.41000000  * -54.42000000  *
   646       H         70.78200000  *  151.40500000  * -55.26300000  *
   647       C         72.29900000  *  150.30500000  * -54.19800000  *
   648       H         72.26800000  *  149.45600000  * -54.86800000  *
   649       C         73.17400000  *  150.29700000  * -53.09700000  *
   650       H         73.81700000  *  149.44400000  * -52.92300000  *
   651       C         73.20500000  *  151.39500000  * -52.22000000  *
   652       H         73.86600000  *  151.38000000  * -51.36600000  *
   653       C         72.36700000  *  152.50200000  * -52.44200000  *
   654       H         72.38900000  *  153.34100000  * -51.75900000  *
   655       C         69.88300000  *  155.76200000  * -54.97200000  *
   656       O         69.72600000  *  156.72600000  * -54.22200000  *
   657       N         69.07600000  *  155.54600000  * -56.01400000  *
   658       H         69.24300000  *  154.72400000  * -56.58600000  *
   659       C         67.81700000  *  156.29000000  * -56.19500000  *
   660       H         68.06300000  *  157.33700000  * -56.37200000  *
   661       C         67.05300000  *  155.77000000  * -57.42700000  *
   662       H         66.21200000  *  156.44100000  * -57.60600000  *
   663       H         67.71200000  *  155.80600000  * -58.29400000  *
   664       C         66.51900000  *  154.33700000  * -57.25800000  *
   665       H         67.36000000  *  153.66900000  * -57.06300000  *
   666       H         65.85000000  *  154.29900000  * -56.40100000  *
   667       C         65.72000000  *  153.81600000  * -58.45500000  *
   668       O         65.26400000  *  154.61100000  * -59.30800000  *
   669       O         65.50200000  *  152.58400000  * -58.50200000  *
   670       C         66.94600000  *  156.21400000  * -54.92300000  *
   671       O         66.84600000  *  155.15400000  * -54.30800000  *
   672       N         66.32100000  *  157.31200000  * -54.49400000  *
   673       H         66.38900000  *  158.16900000  * -55.02400000  *
   674       C         65.45200000  *  157.29200000  * -53.31200000  *
   675       H         65.92600000  *  156.67900000  * -52.54200000  *
   676       C         65.32900000  *  158.70800000  * -52.74500000  *
   677       H         66.32600000  *  159.06700000  * -52.49600000  *
   678       H         64.92000000  *  159.36300000  * -53.51500000  *
   679       C         64.46900000  *  158.81300000  * -51.49900000  *
   680       C         63.15400000  *  159.30800000  * -51.58600000  *
   681       H         62.74800000  *  159.60900000  * -52.54200000  *
   682       C         62.36100000  *  159.41300000  * -50.42900000  *
   683       H         61.35100000  *  159.79200000  * -50.50100000  *
   684       C         62.88100000  *  159.02100000  * -49.18300000  *
   685       H         62.26900000  *  159.09900000  * -48.29500000  *
   686       C         64.19500000  *  158.52700000  * -49.09400000  *
   687       H         64.59300000  *  158.22600000  * -48.13400000  *
   688       C         64.98800000  *  158.42200000  * -50.25000000  *
   689       H         65.99800000  *  158.04100000  * -50.17900000  *
   690       C         64.07200000  *  156.67900000  * -53.61200000  *
   691       O         63.42500000  *  157.04600000  * -54.59600000  *
   692       N         63.60100000  *  155.79400000  * -52.72800000  *
   693       H         64.21000000  *  155.52200000  * -51.96500000  *
   694       C         62.20700000  *  155.33400000  * -52.65700000  *
   695       H         61.61600000  *  155.82400000  * -53.43300000  *
   696       C         62.11900000  *  153.81200000  * -52.86300000  *
   697       H         62.83500000  *  153.31500000  * -52.20900000  *
   698       H         61.12000000  *  153.49800000  * -52.55700000  *
   699       C         62.33700000  *  153.38000000  * -54.32600000  *
   700       H         62.01700000  *  154.17700000  * -54.99700000  *
   701       C         63.80400000  *  153.04700000  * -54.60200000  *
   702       H         64.14600000  *  152.27800000  * -53.91100000  *
   703       H         63.92200000  *  152.70600000  * -55.63000000  *
   704       H         64.41600000  *  153.93600000  * -54.46700000  *
   705       C         61.50300000  *  152.13900000  * -54.64700000  *
   706       H         60.45100000  *  152.33100000  * -54.43100000  *
   707       H         61.59100000  *  151.90200000  * -55.70500000  *
   708       H         61.84000000  *  151.29000000  * -54.05600000  *
   709       C         61.59400000  *  155.73700000  * -51.31200000  *
   710       O         62.30300000  *  155.92000000  * -50.32600000  *
   711       N         60.27800000  *  155.92500000  * -51.26700000  *
   712       H         59.74500000  *  155.79400000  * -52.11700000  *
   713       C         59.62200000  *  156.64300000  * -50.16800000  *
   714       H         60.27100000  *  157.46900000  * -49.87200000  *
   715       C         58.32300000  *  157.26200000  * -50.69700000  *
   716       H         57.59200000  *  156.46900000  * -50.86000000  *
   717       H         57.93900000  *  157.93600000  * -49.93500000  *
   718       C         58.48100000  *  158.03500000  * -51.98600000  *
   719       N         58.52400000  *  157.47500000  * -53.26800000  *
   720       C         58.71400000  *  158.50400000  * -54.11300000  *
   721       H         58.79400000  *  158.41700000  * -55.19100000  *
   722       N         58.79600000  *  159.65900000  * -53.43200000  *
   723       H         58.93800000  *  160.57400000  * -53.84900000  *
   724       C         58.65400000  *  159.38400000  * -52.08900000  *
   725       H         58.68200000  *  160.09300000  * -51.27000000  *
   726       C         59.37200000  *  155.82600000  * -48.88600000  *
   727       O         59.18400000  *  156.42400000  * -47.82600000  *
   728       N         59.37800000  *  154.48900000  * -48.95200000  *
   729       H         59.54900000  *  154.05600000  * -49.85000000  *
   730       C         59.03900000  *  153.59500000  * -47.83000000  *
   731       H         59.49600000  *  153.98900000  * -46.92100000  *
   732       C         57.50500000  *  153.60000000  * -47.63900000  *
   733       H         57.19600000  *  154.61500000  * -47.38400000  *
   734       H         57.01700000  *  153.32700000  * -48.57600000  *
   735       C         57.01200000  *  152.65400000  * -46.53200000  *
   736       H         56.89400000  *  151.65500000  * -46.94700000  *
   737       H         57.75200000  *  152.61500000  * -45.73500000  *
   738       C         55.69500000  *  153.10200000  * -45.90900000  *
   739       O         55.65500000  *  153.76500000  * -44.88600000  *
   740       N         54.56400000  *  152.76100000  * -46.48900000  *
   741       H         53.71600000  *  153.08000000  * -46.04700000  *
   742       H         54.56500000  *  152.24000000  * -47.34800000  *
   743       C         59.59200000  *  152.17100000  * -48.03900000  *
   744       O         59.70500000  *  151.71200000  * -49.17800000  *
   745       N         59.92300000  *  151.46300000  * -46.95200000  *
   746       H         59.79800000  *  151.89700000  * -46.03800000  *
   747       C         60.27000000  *  150.03100000  * -46.99600000  *
   748       H         60.57700000  *  149.79700000  * -48.01100000  *
   749       C         61.49200000  *  149.72600000  * -46.11300000  *
   750       H         61.83200000  *  148.71800000  * -46.35700000  *
   751       H         62.29500000  *  150.41200000  * -46.38600000  *
   752       C         61.25900000  *  149.79900000  * -44.60100000  *
   753       O         60.31200000  *  149.15200000  * -44.10600000  *
   754       O         62.07900000  *  150.45000000  * -43.91200000  *
   755       C         59.07300000  *  149.10600000  * -46.69300000  *
   756       O         58.04200000  *  149.53100000  * -46.15300000  *
   757       N         59.19100000  *  147.81900000  * -47.04800000  *
   758       H         60.03800000  *  147.50900000  * -47.52500000  *
   759       C         58.10100000  *  146.88000000  * -46.84100000  *
   760       H         57.21800000  *  147.32500000  * -47.29300000  *
   761       C         58.41200000  *  145.57700000  * -47.59200000  *
   762       H         58.61300000  *  145.80400000  * -48.64400000  *
   763       H         59.28800000  *  145.12100000  * -47.15800000  *
   764       C         57.28700000  *  144.52700000  * -47.51900000  *
   765       H         57.05600000  *  144.28000000  * -46.48700000  *
   766       C         56.00700000  *  145.04400000  * -48.19600000  *
   767       H         56.23500000  *  145.37800000  * -49.20200000  *
   768       H         55.26800000  *  144.24500000  * -48.23100000  *
   769       H         55.59500000  *  145.87000000  * -47.62900000  *
   770       C         57.76800000  *  143.24900000  * -48.17500000  *
   771       H         58.61500000  *  142.85400000  * -47.62000000  *
   772       H         56.97300000  *  142.50400000  * -48.17100000  *
   773       H         58.06400000  *  143.44500000  * -49.20700000  *
   774       C         57.76400000  *  146.61300000  * -45.36900000  *
   775       O         56.60900000  *  146.37600000  * -45.03000000  *
   776       N         58.75700000  *  146.67700000  * -44.48800000  *
   777       H         59.64000000  *  147.08600000  * -44.79000000  *
   778       C         58.49100000  *  146.46700000  * -43.07300000  *
   779       H         57.97900000  *  145.55100000  * -42.87200000  *
   780       C         59.78200000  *  146.47800000  * -42.25400000  *
   781       H         60.44800000  *  145.70000000  * -42.62000000  *
   782       H         60.28600000  *  147.44000000  * -42.35600000  *
   783       C         59.49200000  *  146.22900000  * -40.76500000  *
   784       H         58.94200000  *  147.08300000  * -40.37400000  *
   785       H         58.87100000  *  145.33200000  * -40.67600000  *
   786       C         60.74500000  *  146.03800000  * -39.93500000  *
   787       H         61.36100000  *  145.25900000  * -40.37900000  *
   788       H         61.30800000  *  146.97100000  * -39.90700000  *
   789       C         60.37600000  *  145.60700000  * -38.51700000  *
   790       H         59.98500000  *  144.58900000  * -38.53700000  *
   791       H         61.27900000  *  145.61300000  * -37.90300000  *
   792       N         59.34600000  *  146.53100000  * -37.94700000  *
   793       H         58.44600000  *  146.48100000  * -38.44300000  *
   794       H         59.09000000  *  146.27800000  * -37.00400000  *
   795       H         59.61300000  *  147.50600000  * -37.97800000  *
   796       C         57.55800000  *  147.53800000  * -42.51200000  *
   797       O         56.61300000  *  147.23400000  * -41.78300000  *
   798       N         57.83400000  *  148.81700000  * -42.79700000  *
   799       H         58.66200000  *  149.01600000  * -43.36300000  *
   800       C         56.99300000  *  149.92300000  * -42.31800000  *
   801       H         56.87500000  *  149.82200000  * -41.23800000  *
   802       C         57.65500000  *  151.28100000  * -42.59800000  *
   803       H         58.65800000  *  151.28000000  * -42.16800000  *
   804       H         57.73600000  *  151.44000000  * -43.67400000  *
   805       C         56.83800000  *  152.41900000  * -41.96000000  *
   806       H         55.86400000  *  152.48000000  * -42.44700000  *
   807       H         56.68100000  *  152.19400000  * -40.90400000  *
   808       C         57.52900000  *  153.78300000  * -42.07300000  *
   809       H         58.47000000  *  153.75300000  * -41.52100000  *
   810       H         57.72800000  *  154.00200000  * -43.12300000  *
   811       C         56.61300000  *  154.86400000  * -41.48200000  *
   812       H         55.68100000  *  154.88000000  * -42.05400000  *
   813       H         56.36700000  *  154.58800000  * -40.45200000  *
   814       N         57.24600000  *  156.20800000  * -41.50500000  *
   815       H         57.45800000  *  156.49800000  * -42.44800000  *
   816       H         56.63100000  *  156.90200000  * -41.10400000  *
   817       H         58.10300000  *  156.22000000  * -40.97200000  *
   818       C         55.59400000  *  149.82000000  * -42.91900000  *
   819       O         54.61000000  *  150.04400000  * -42.22100000  *
   820       N         55.49500000  *  149.42600000  * -44.18900000  *
   821       H         56.35000000  *  149.26300000  * -44.71300000  *
   822       C         54.20500000  *  149.26000000  * -44.85200000  *
   823       H         53.62600000  *  150.17500000  * -44.72500000  *
   824       C         54.41000000  *  148.98800000  * -46.34000000  *
   825       H         54.98900000  *  149.80200000  * -46.77700000  *
   826       H         55.00200000  *  148.07700000  * -46.45200000  *
   827       C         53.12600000  *  148.85300000  * -47.10800000  *
   828       C         52.23100000  *  149.92200000  * -47.18600000  *
   829       H         52.46300000  *  150.85600000  * -46.69900000  *
   830       C         51.01500000  *  149.79500000  * -47.88400000  *
   831       H         50.32500000  *  150.62800000  * -47.91800000  *
   832       C         50.69700000  *  148.60300000  * -48.50200000  *
   833       H         49.75200000  *  148.50200000  * -49.02000000  *
   834       C         51.58700000  *  147.52100000  * -48.43200000  *
   835       H         51.33500000  *  146.58300000  * -48.91200000  *
   836       C         52.79500000  *  147.65400000  * -47.73300000  *
   837       H         53.46700000  *  146.81000000  * -47.67200000  *
   838       C         53.37400000  *  148.12200000  * -44.22700000  *
   839       O         52.16900000  *  148.28300000  * -44.00900000  *
   840       N         54.01600000  *  146.98100000  * -43.96600000  *
   841       H         55.00900000  *  146.90600000  * -44.17900000  *
   842       C         53.33800000  *  145.83600000  * -43.34100000  *
   843       H         52.47600000  *  145.52800000  * -43.93400000  *
   844       C         54.29200000  *  144.65000000  * -43.17000000  *
   845       H         55.15800000  *  145.02700000  * -42.63600000  *
   846       H         53.80700000  *  143.89200000  * -42.54700000  *
   847       C         54.73100000  *  144.00400000  * -44.46100000  *
   848       H         53.84700000  *  143.61400000  * -44.95900000  *
   849       H         55.19200000  *  144.69400000  * -45.15000000  *
   850       S         55.79700000  *  142.58100000  * -44.15400000  *
   851       C         57.05400000  *  143.29200000  * -43.18800000  *
   852       H         56.67800000  *  143.65800000  * -42.23500000  *
   853       H         57.80700000  *  142.53400000  * -42.98200000  *
   854       H         57.44300000  *  144.07900000  * -43.80900000  *
   855       C         52.84400000  *  146.26000000  * -41.95900000  *
   856       O         51.68200000  *  146.03200000  * -41.61400000  *
   857       N         53.72600000  *  146.88400000  * -41.17900000  *
   858       H         54.70100000  *  146.95700000  * -41.45300000  *
   859       C         53.34300000  *  147.35100000  * -39.84600000  *
   860       H         53.03400000  *  146.49700000  * -39.23800000  *
   861       C         54.50500000  *  148.07700000  * -39.15700000  *
   862       H         54.94100000  *  148.81500000  * -39.83000000  *
   863       H         54.12400000  *  148.60600000  * -38.28400000  *
   864       C         55.58400000  *  147.11500000  * -38.68500000  *
   865       O         55.26200000  *  145.90900000  * -38.57600000  *
   866       O         56.73300000  *  147.55200000  * -38.41700000  *
   867       C         52.15000000  *  148.27900000  * -39.96300000  *
   868       O         51.20300000  *  148.18000000  * -39.18700000  *
   869       N         52.18300000  *  149.16200000  * -40.95500000  *
   870       H         53.01600000  *  149.23700000  * -41.51800000  *
   871       C         51.08600000  *  150.10000000  * -41.17300000  *
   872       H         50.93100000  *  150.67400000  * -40.25800000  *
   873       C         51.42800000  *  151.06800000  * -42.31500000  *
   874       H         51.45500000  *  150.53900000  * -43.26600000  *
   875       H         50.66000000  *  151.83800000  * -42.36800000  *
   876       H         52.39300000  *  151.53600000  * -42.12800000  *
   877       C         49.78900000  *  149.37000000  * -41.49900000  *
   878       O         48.71100000  *  149.83600000  * -41.15600000  *
   879       N         49.90500000  *  148.22900000  * -42.16400000  *
   880       H         50.83800000  *  147.88500000  * -42.38200000  *
   881       C         48.74000000  *  147.45400000  * -42.57500000  *
   882       H         47.85700000  *  148.08600000  * -42.62800000  *
   883       H         48.90600000  *  147.02300000  * -43.58600000  *
   884       H         48.52600000  *  146.61900000  * -41.88800000  *
   885       H         72.54500000  *  137.05800000  * -55.15200000  *
   886       C         72.38600000  *  137.90500000  * -54.47400000  *
   887       O         73.28300000  *  138.71900000  * -54.28600000  *
   888       N         71.20100000  *  138.01500000  * -53.89800000  *
   889       H         70.47300000  *  137.31400000  * -54.05700000  *
   890       C         70.96800000  *  139.10000000  * -52.94900000  *
   891       H         71.50000000  *  140.00600000  * -53.22900000  *
   892       C         69.47700000  *  139.40500000  * -52.82500000  *
   893       H         69.09300000  *  139.71900000  * -53.79200000  *
   894       H         68.93000000  *  138.50600000  * -52.53300000  *
   895       C         69.17800000  *  140.45400000  * -51.81200000  *
   896       N         69.23000000  *  140.42300000  * -50.45900000  *
   897       C         68.94700000  *  141.69100000  * -50.01400000  *
   898       H         68.96900000  *  142.01200000  * -48.98400000  *
   899       N         68.72400000  *  142.47200000  * -51.05500000  *
   900       H         68.47200000  *  143.44500000  * -51.00700000  *
   901       C         68.85400000  *  141.75000000  * -52.15500000  *
   902       H         68.77100000  *  142.12600000  * -53.16500000  *
   903       C         71.52100000  *  138.65700000  * -51.58300000  *
   904       O         72.28000000  *  139.38000000  * -50.94700000  *
   905       N         71.11400000  *  137.47100000  * -51.14500000  *
   906       H         70.37100000  *  137.01600000  * -51.66500000  *
   907       C         71.55500000  *  136.88000000  * -49.87700000  *
   908       H         71.18200000  *  135.84900000  * -49.87900000  *
   909       C         73.07600000  *  136.85300000  * -49.83700000  *
   910       H         73.53100000  *  137.83300000  * -49.86900000  *
   911       H         73.36600000  *  136.47900000  * -48.85100000  *
   912       C         73.64700000  *  135.85900000  * -50.81700000  *
   913       H         73.29800000  *  134.87100000  * -50.67200000  *
   914       H         73.21600000  *  136.10500000  * -51.78700000  *
   915       C         75.11700000  *  136.08400000  * -50.99900000  *
   916       H         75.61200000  *  135.95400000  * -50.03300000  *
   917       H         75.49500000  *  135.33200000  * -51.69500000  *
   918       N         75.35800000  *  137.42700000  * -51.50600000  *
   919       H         74.62100000  *  138.12700000  * -51.38200000  *
   920       C         76.54800000  *  137.85900000  * -51.89000000  *
   921       N         77.59300000  *  137.04400000  * -51.81500000  *
   922       H         77.44700000  *  136.21200000  * -51.26800000  *
   923       H         78.49900000  *  137.44300000  * -51.92100000  *
   924       N         76.69000000  *  139.09300000  * -52.35600000  *
   925       H         75.86000000  *  139.69200000  * -52.33800000  *
   926       H         77.56200000  *  139.47800000  * -52.67100000  *
   927       C         71.03700000  *  137.42400000  * -48.54200000  *
   928       O         71.18700000  *  136.76800000  * -47.50900000  *
   929       N         70.43700000  *  138.60400000  * -48.51600000  *
   930       H         70.32800000  *  139.16900000  * -49.34700000  *
   931       C         69.93700000  *  139.07600000  * -47.23100000  *
   932       H         69.76500000  *  138.24900000  * -46.54100000  *
   933       C         70.93500000  *  140.04200000  * -46.56200000  *
   934       H         71.90900000  *  139.56600000  * -46.50900000  *
   935       H         71.04400000  *  140.94300000  * -47.17900000  *
   936       C         70.51300000  *  140.42800000  * -45.14700000  *
   937       O         70.17200000  *  139.51500000  * -44.35500000  *
   938       O         70.51000000  *  141.64400000  * -44.82500000  *
   939       C         68.58700000  *  139.73400000  * -47.37800000  *
   940       O         68.35000000  *  140.81000000  * -46.83500000  *
   941       N         67.68700000  *  139.08300000  * -48.11000000  *
   942       H         67.94300000  *  138.20800000  * -48.54500000  *
   943       C         66.35900000  *  139.64900000  * -48.29900000  *
   944       H         66.47700000  *  140.66700000  * -48.65900000  *
   945       C         65.54600000  *  138.81300000  * -49.28800000  *
   946       H         65.58300000  *  137.78400000  * -48.94500000  *
   947       H         64.50600000  *  139.14000000  * -49.25500000  *
   948       C         66.02700000  *  138.85500000  * -50.73600000  *
   949       H         67.06400000  *  138.52800000  * -50.78200000  *
   950       C         65.17300000  *  137.91700000  * -51.58300000  *
   951       H         64.15900000  *  138.30500000  * -51.68800000  *
   952       H         65.63400000  *  137.80700000  * -52.55000000  *
   953       H         65.13400000  *  136.93500000  * -51.11000000  *
   954       C         65.92100000  *  140.27700000  * -51.26400000  *
   955       H         66.42000000  *  140.99600000  * -50.63300000  *
   956       H         66.44200000  *  140.27500000  * -52.20900000  *
   957       H         64.88200000  *  140.56100000  * -51.39700000  *
   958       C         65.59400000  *  139.73400000  * -46.98200000  *
   959       O         65.58600000  *  138.79200000  * -46.16600000  *
   960       N         64.95400000  *  140.85500000  * -46.74700000  *
   961       H         64.96600000  *  141.58700000  * -47.44500000  *
   962       C         64.17300000  *  141.06800000  * -45.54300000  *
   963       H         63.56300000  *  140.17800000  * -45.39400000  *
   964       C         65.06100000  *  141.24200000  * -44.29200000  *
   965       H         64.43100000  *  141.32600000  * -43.40600000  *
   966       H         65.64900000  *  140.33300000  * -44.16500000  *
   967       C         66.01200000  *  142.44500000  * -44.32200000  *
   968       H         66.44300000  *  142.55400000  * -45.31600000  *
   969       H         65.46500000  *  143.35200000  * -44.06600000  *
   970       C         67.14900000  *  142.20500000  * -43.32200000  *
   971       H         66.73200000  *  141.96400000  * -42.34100000  *
   972       H         67.72800000  *  141.34800000  * -43.67600000  *
   973       C         68.06400000  *  143.42500000  * -43.19400000  *
   974       H         68.17300000  *  143.89600000  * -44.17600000  *
   975       H         67.58800000  *  144.15100000  * -42.52500000  *
   976       N         69.39700000  *  143.02000000  * -42.67700000  *
   977       H         69.88700000  *  142.45000000  * -43.38000000  *
   978       H         69.96400000  *  143.82800000  * -42.45300000  *
   979       H         69.30100000  *  142.47100000  * -41.83300000  *
   980       C         63.27000000  *  142.23500000  * -45.83300000  *
   981       O         63.63300000  *  143.08300000  * -46.64900000  *
   982       N         62.11200000  *  142.30300000  * -45.18600000  *
   983       C         61.62600000  *  141.34600000  * -44.17100000  *
   984       H         62.10000000  *  141.53200000  * -43.20900000  *
   985       H         61.74500000  *  140.31100000  * -44.47600000  *
   986       C         60.16400000  *  141.66900000  * -44.09500000  *
   987       H         59.73700000  *  141.34900000  * -43.14300000  *
   988       H         59.63700000  *  141.20600000  * -44.93200000  *
   989       C         60.16000000  *  143.18900000  * -44.24800000  *
   990       H         60.51600000  *  143.64900000  * -43.32100000  *
   991       H         59.20200000  *  143.56500000  * -44.57400000  *
   992       C         61.14500000  *  143.38000000  * -45.40300000  *
   993       H         60.63400000  *  143.20500000  * -46.34500000  *
   994       C         61.77100000  *  144.77100000  * -45.44800000  *
   995       O         61.39200000  *  145.58400000  * -46.27300000  *
   996       N         62.72200000  *  145.08900000  * -44.55100000  *
   997       H         62.96200000  *  144.39800000  * -43.85600000  *
   998       C         63.43300000  *  146.38900000  * -44.51400000  *
   999       H         62.69900000  *  147.19100000  * -44.40800000  *
  1000       C         64.39300000  *  146.44300000  * -43.31100000  *
  1001       H         65.08700000  *  145.60400000  * -43.37400000  *
  1002       H         64.97900000  *  147.36200000  * -43.37900000  *
  1003       C         63.70500000  *  146.43700000  * -41.94000000  *
  1004       H         63.00500000  *  147.27200000  * -41.89500000  *
  1005       H         63.15200000  *  145.50800000  * -41.81100000  *
  1006       C         64.71600000  *  146.55500000  * -40.79700000  *
  1007       O         65.74200000  *  145.88800000  * -40.76700000  *
  1008       N         64.47200000  *  147.39100000  * -39.81200000  *
  1009       H         65.14900000  *  147.45700000  * -39.06500000  *
  1010       H         63.65600000  *  147.98300000  * -39.82100000  *
  1011       C         64.26700000  *  146.69600000  * -45.77600000  *
  1012       O         64.48700000  *  147.85700000  * -46.11300000  *
  1013       N         64.73700000  *  145.65500000  * -46.46700000  *
  1014       H         64.43800000  *  144.73300000  * -46.18200000  *
  1015       C         65.52300000  *  145.72800000  * -47.69900000  *
  1016       H         66.06500000  *  146.67600000  * -47.73100000  *
  1017       C         66.56400000  *  144.57800000  * -47.70200000  *
  1018       H         66.08100000  *  143.63900000  * -47.44300000  *
  1019       H         66.96600000  *  144.46500000  * -48.70700000  *
  1020       C         67.76100000  *  144.81100000  * -46.78700000  *
  1021       O         67.97300000  *  145.89100000  * -46.25800000  *
  1022       N         68.59900000  *  143.81900000  * -46.57500000  *
  1023       H         69.49900000  *  144.06100000  * -46.17800000  *
  1024       H         68.41700000  *  142.86300000  * -46.85800000  *
  1025       C         64.63400000  *  145.71600000  * -48.96000000  *
  1026       O         65.16600000  *  145.62700000  * -50.06400000  *
  1027       N         63.30000000  *  145.80300000  * -48.83400000  *
  1028       H         62.89500000  *  145.87300000  * -47.90900000  *
  1029       C         62.40600000  *  145.84500000  * -49.97900000  *
  1030       H         62.94700000  *  145.74800000  * -50.91900000  *
  1031       C         61.36900000  *  144.72100000  * -49.88900000  *
  1032       H         60.76900000  *  144.86100000  * -48.99200000  *
  1033       H         60.74400000  *  144.79800000  * -50.77200000  *
  1034       C         62.03600000  *  143.32400000  * -49.85900000  *
  1035       H         62.67100000  *  143.24000000  * -48.98800000  *
  1036       C         61.00200000  *  142.26000000  * -49.77100000  *
  1037       H         60.24600000  *  142.42800000  * -50.53400000  *
  1038       H         61.44700000  *  141.27100000  * -49.89000000  *
  1039       H         60.52000000  *  142.31900000  * -48.79800000  *
  1040       C         62.89500000  *  143.12600000  * -51.08400000  *
  1041       H         63.82900000  *  143.66800000  * -50.95600000  *
  1042       H         63.12900000  *  142.06900000  * -51.20900000  *
  1043       H         62.39300000  *  143.49200000  * -51.96600000  *
  1044       C         61.76300000  *  147.21800000  * -49.95200000  *
  1045       O         61.15000000  *  147.60200000  * -48.96600000  *
  1046       N         61.89800000  *  147.99100000  * -51.02400000  *
  1047       H         62.39000000  *  147.62200000  * -51.83200000  *
  1048       C         61.45300000  *  149.38500000  * -51.05100000  *
  1049       H         61.05500000  *  149.67400000  * -50.08100000  *
  1050       C         62.63600000  *  150.30500000  * -51.35200000  *
  1051       H         62.98500000  *  150.11000000  * -52.36600000  *
  1052       H         62.27400000  *  151.33000000  * -51.29700000  *
  1053       C         63.82200000  *  150.14400000  * -50.39000000  *
  1054       H         64.26300000  *  149.15600000  * -50.50800000  *
  1055       C         64.85600000  *  151.19500000  * -50.74100000  *
  1056       H         64.45800000  *  152.17900000  * -50.50700000  *
  1057       H         65.76400000  *  151.01000000  * -50.17000000  *
  1058       H         65.09300000  *  151.16700000  * -51.79900000  *
  1059       C         63.45700000  *  150.35100000  * -48.92200000  *
  1060       H         62.83700000  *  149.52600000  * -48.58600000  *
  1061       H         64.35900000  *  150.35800000  * -48.31200000  *
  1062       H         62.91600000  *  151.28900000  * -48.79500000  *
  1063       C         60.33200000  *  149.57100000  * -52.06100000  *
  1064       O         60.43400000  *  149.11100000  * -53.18600000  *
  1065       N         59.26800000  *  150.25600000  * -51.67700000  *
  1066       H         59.36500000  *  150.76300000  * -50.80000000  *
  1067       C         58.08300000  *  150.44700000  * -52.50800000  *
  1068       H         58.17300000  *  149.92400000  * -53.45700000  *
  1069       C         56.81900000  *  149.90600000  * -51.78600000  *
  1070       H         55.94300000  *  150.08700000  * -52.41500000  *
  1071       C         56.95000000  *  148.40400000  * -51.54300000  *
  1072       H         57.75300000  *  148.18300000  * -50.83300000  *
  1073       H         56.01300000  *  148.00400000  * -51.15200000  *
  1074       H         57.15800000  *  147.91500000  * -52.48900000  *
  1075       C         56.64700000  *  150.60600000  * -50.43300000  *
  1076       H         57.48200000  *  150.38000000  * -49.77500000  *
  1077       H         56.60500000  *  151.68300000  * -50.57600000  *
  1078       C         55.37000000  *  150.22200000  * -49.68600000  *
  1079       H         55.48900000  *  149.24800000  * -49.22200000  *
  1080       H         55.17000000  *  150.96500000  * -48.91000000  *
  1081       H         54.52900000  *  150.16800000  * -50.38500000  *
  1082       C         57.87200000  *  151.93000000  * -52.81700000  *
  1083       O         58.38200000  *  152.79400000  * -52.10000000  *
  1084       N         57.14900000  *  152.22000000  * -53.89700000  *
  1085       H         56.70500000  *  151.48200000  * -54.43300000  *
  1086       C         56.84100000  *  153.60200000  * -54.22700000  *
  1087       H         57.16800000  *  154.27800000  * -53.43100000  *
  1088       C         57.50400000  *  154.05300000  * -55.54100000  *
  1089       H         57.21800000  *  155.07000000  * -55.80500000  *
  1090       H         58.58200000  *  154.04400000  * -55.38800000  *
  1091       C         57.19300000  *  153.14600000  * -56.70100000  *
  1092       O         56.13500000  *  152.53500000  * -56.76400000  *
  1093       N         58.11500000  *  153.07200000  * -57.64100000  *
  1094       H         57.83300000  *  152.61700000  * -58.48600000  *
  1095       H         58.88600000  *  153.71500000  * -57.62100000  *
  1096       C         55.33100000  *  153.75800000  * -54.32100000  *
  1097       O         54.57600000  *  152.79900000  * -54.11400000  *
  1098       N         54.88500000  *  154.97100000  * -54.62100000  *
  1099       H         55.52100000  *  155.73600000  * -54.79200000  *
  1100       C         53.46400000  *  155.24700000  * -54.72300000  *
  1101       H         52.92700000  *  154.82600000  * -53.87200000  *
  1102       C         53.20900000  *  156.78000000  * -54.75500000  *
  1103       H         52.16900000  *  156.98000000  * -55.02600000  *
  1104       C         53.47800000  *  157.39700000  * -53.41000000  *
  1105       H         54.52100000  *  157.25500000  * -53.13000000  *
[...]
 1005  H   0.82988
 1006  C   1.06520   0.79796   0.73407   0.79730
 1007  O   1.87741   1.40562   1.58109   1.83311
 1008  N   1.52718   1.34506   1.42346   1.30455
 1009  H   0.65784
 1010  H   0.66159
 1011  C   1.08270   0.75654   0.78179   0.81306
 1012  O   1.88462   1.66205   1.30779   1.74074
 1013  N   1.55066   1.50365   1.20250   1.30212
 1014  H   0.66499
 1015  C   1.07262   0.94296   1.09917   0.82243
 1016  H   0.80616
 1017  C   1.07168   1.05235   1.09297   1.15869
 1018  H   0.82758
 1019  H   0.79785
 1020  C   1.05884   0.80367   0.76485   0.75962
 1021  O   1.87599   1.79792   1.39960   1.60612
 1022  N   1.53333   1.28241   1.19785   1.61003
 1023  H   0.64701
 1024  H   0.65696
 1025  C   1.08743   0.78449   0.72043   0.85433
 1026  O   1.87870   1.76217   1.60764   1.38312
 1027  N   1.54134   1.12650   1.66651   1.18325
 1028  H   0.65440
 1029  C   1.06968   0.96858   0.97816   0.97460
 1030  H   0.81114
 1031  C   1.06730   1.06446   0.99833   1.17239
 1032  H   0.83765
 1033  H   0.84874
 1034  C   1.04098   1.01158   0.94530   1.06283
 1035  H   0.85525
 1036  C   1.04923   1.12608   1.11875   1.17061
 1037  H   0.84552
 1038  H   0.84879
 1039  H   0.86578
 1040  C   1.05152   1.14183   1.17204   1.09833
 1041  H   0.84359
 1042  H   0.85735
 1043  H   0.85052
 1044  C   1.07743   0.74926   0.84344   0.75498
 1045  O   1.87182   1.53821   1.79800   1.44588
 1046  N   1.54624   1.55626   1.16964   1.24996
 1047  H   0.64538
 1048  C   1.06623   0.98854   0.82496   1.09925
 1049  H   0.81405
 1050  C   1.06502   1.02246   1.10352   1.12642
 1051  H   0.84757
 1052  H   0.84201
 1053  C   1.04857   0.96830   1.07033   0.96829
 1054  H   0.86524
 1055  C   1.05434   1.12440   1.12712   1.16731
 1056  H   0.84717
 1057  H   0.84687
 1058  H   0.86161
 1059  C   1.05503   1.17527   1.17802   1.04683
 1060  H   0.84037
 1061  H   0.85193
 1062  H   0.84729
 1063  C   1.07759   0.79768   0.74253   0.81700
 1064  O   1.86908   1.83114   1.62266   1.34238
 1065  N   1.54240   1.18909   1.47417   1.29537
 1066  H   0.64511
 1067  C   1.07601   0.88861   1.00630   1.04131
 1068  H   0.81047
 1069  C   1.06433   1.01547   0.99341   1.01948
 1070  H   0.85006
 1071  C   1.05459   1.18112   1.03364   1.17653
 1072  H   0.84304
 1073  H   0.84520
 1074  H   0.85339
 1075  C   1.05399   1.06931   1.11994   1.03189
 1076  H   0.84585
 1077  H   0.86120
 1078  C   1.05249   1.08996   1.15715   1.13164
 1079  H   0.84791
 1080  H   0.87893
 1081  H   0.84638
 1082  C   1.08605   0.74197   0.88700   0.74227
 1083  O   1.88651   1.57067   1.57767   1.55875
 1084  N   1.54272   1.50623   1.14468   1.33663
 1085  H   0.64377
 1086  C   1.06255   0.97206   0.88295   1.03880
 1087  H   0.80259
 1088  C   1.07219   1.17999   1.12623   1.02220
 1089  H   0.81072
 1090  H   0.80592
 1091  C   1.06109   0.76058   0.76976   0.82308
 1092  O   1.87996   1.35668   1.57059   1.83621
 1093  N   1.53433   1.29840   1.49545   1.27229
 1094  H   0.67240
 1095  H   0.66435
 1096  C   1.08258   0.88405   0.75857   0.71182
 1097  O   1.88760   1.65493   1.46964   1.59093
 1098  N   1.54002   1.14480   1.19794   1.67111
 1099  H   0.66200
 1100  C   1.08543   0.83770   1.05778   1.08120
 1101  H   0.80415
 1102  C   1.08415   0.99079   0.86717   0.89021
 1103  H   0.84763
 1104  C   1.05385   1.18486   1.17981   1.05477
 1105  H   0.84044
 1106  H   0.82475
 1107  H   0.82930
 1108  O   1.84904   1.59144   1.82263   1.34439
 1109  H   0.64350
 1110  C   1.07366   0.78891   0.75526   0.82440
 1111  O   1.87781   1.28031   1.68928   1.84899
 1112  N   1.53342   1.19379   1.53481   1.21098
 1113  H   0.66657
 1114  C   1.05707   1.15367   1.13331   0.89333
 1115  H   0.83551
 1116  H   0.83796
 1117  H   0.83551
 1118  H   0.83975
 1119  C   1.10506   0.75505   0.73538   0.91347
 1120  O   1.88315   1.71087   1.59656   1.48272
 1121  N   1.54487   1.42810   1.34568   1.20826
 1122  H   0.65341
 1123  C   1.08072   0.93152   1.08428   0.93139
 1124  H   0.81024
 1125  C   1.07313   1.07915   0.95373   0.98264
 1126  H   0.84413
 1127  C   1.05810   1.18711   1.08384   1.12917
 1128  H   0.84339
 1129  H   0.84845
 1130  H   0.85224
 1131  C   1.05413   1.07572   1.13448   1.01847
 1132  H   0.85338
 1133  H   0.85489
 1134  C   1.04917   1.14390   1.15096   1.09057
 1135  H   0.84995
 1136  H   0.85944
 1137  H   0.84959
 1138  C   1.07207   0.84157   0.73700   0.77779
 1139  O   1.87775   1.89032   1.52087   1.39049
 1140  N   1.54460   1.10348   1.52625   1.33514
 1141  H   0.63274
 1142  C   1.06997   0.84581   1.05335   1.03860
 1143  H   0.81809
 1144  C   1.06008   1.09257   1.04668   1.09615
 1145  H   0.83592
 1146  H   0.84601
 1147  C   1.05107   1.08579   1.04436   1.07829
 1148  H   0.84976
 1149  H   0.84507
 1150  C   1.05940   1.08230   1.05502   1.09796
 1151  H   0.84197
 1152  H   0.83196
 1153  C   1.07894   1.02212   0.99724   1.07430
 1154  H   0.81143
 1155  H   0.83324
 1156  N   1.45908   1.23091   1.22874   1.25586
 1157  H   0.69609
 1158  H   0.69977
 1159  H   0.68656
 1160  C   1.07784   0.78006   0.75084   0.82518
 1161  O   1.88121   1.77252   1.69263   1.29027
 1162  N   1.54475   1.32861   1.42527   1.23086
 1163  H   0.64082
 1164  C   1.06997   0.91795   0.95762   1.02858
 1165  H   0.83190
 1166  C   1.06265   1.10021   1.01887   1.13304
 1167  H   0.83548
 1168  H   0.84326
 1169  C   1.05366   1.07052   0.96179   0.96317
 1170  H   0.86067
 1171  C   1.06220   1.16594   1.13919   1.09273
 1172  H   0.85165
 1173  H   0.85013
 1174  H   0.85314
 1175  C   1.05740   1.18243   1.13661   1.08901
 1176  H   0.85273
 1177  H   0.84942
 1178  H   0.85375
 1179  C   1.08477   0.79070   0.79943   0.75967
 1180  O   1.88035   1.63465   1.60050   1.54396
 1181  N   1.54476   1.35977   1.43825   1.16055
 1182  H   0.64658
 1183  C   1.06881   0.90950   0.92617   1.04750
 1184  H   0.82597
 1185  C   1.05929   1.16794   1.08519   1.15298
 1186  H   0.82305
 1187  H   0.83388
 1188  H   0.82807
 1189  C   1.08811   0.77638   0.79328   0.74385
 1190  O   1.86683   1.81715   1.34822   1.64676
 1191  N   1.54782   1.19309   1.27354   1.52531
 1192  H   0.67097
 1193  C   1.07683   0.88893   1.06922   0.93620
 1194  H   0.82424
 1195  C   1.07963   1.15379   1.14909   1.04799
 1196  H   0.81753
 1197  H   0.83491
 1198  C   1.07212   0.74880   0.68062   0.76672
 1199  O   1.88783   1.46343   1.58067   1.80923
 1200  O   1.88075   1.83914   1.74536   1.34140
 1201  C   1.08229   0.80183   0.78325   0.74665
 1202  O   1.88600   1.33638   1.76221   1.59917
 1203  N   1.56300   1.29012   1.16824   1.53142
 1204  H   0.68677
 1205  C   1.07876   1.02257   0.91411   0.94741
 1206  H   0.84020
 1207  C   1.05576   1.07552   1.20057   0.96919
 1208  H   0.81727
 1209  H   0.82095
 1210  C   1.07493   0.97353   0.97523   0.96792
 1211  C   1.08973   1.04078   1.04181   1.01558
 1212  H   0.84051
 1213  C   1.08833   0.98664   1.06113   1.01196
 1214  H   0.84421
 1215  C   1.08716   1.05963   0.99228   1.03367
 1216  H   0.84893
 1217  C   1.08950   1.03717   1.03583   0.98841
 1218  H   0.83190
 1219  C   1.08764   0.98596   1.06532   1.02320
 1220  H   0.83748
 1221  C   1.08706   0.80174   0.77226   0.76558
 1222  O   1.88394   1.45350   1.57200   1.72139
 1223  N   1.53894   1.41557   1.42670   1.13120
 1224  H   0.66274
 1225  C   1.06817   0.97920   1.06554   0.99054
 1226  H   0.81131
 1227  H   0.80895
 1228  C   1.08216   0.83054   0.77540   0.69912
 1229  O   1.87652   1.84224   1.32716   1.61544
 1230  N   1.55943   1.30127   1.23711   1.44863
 1231  H   0.67186
 1232  C   1.07729   0.89752   1.02985   0.97163
 1233  H   0.83138
 1234  C   1.06776   1.11302   0.95251   1.17272
 1235  H   0.84311
 1236  H   0.82951
 1237  C   1.05229   1.03648   0.95772   1.01312
 1238  H   0.85531
 1239  C   1.05591   1.16874   1.07113   1.16038
 1240  H   0.85867
 1241  H   0.84341
 1242  H   0.86069
 1243  C   1.05550   1.17031   1.18942   1.04559
 1244  H   0.83899
 1245  H   0.84260
 1246  H   0.85830
 1247  C   1.09601   0.85850   0.76637   0.72614
 1248  O   1.88116   1.32626   1.78642   1.59399
 1249  N   1.58222   1.28242   1.23302   1.52107
 1250  H   0.65940
 1251  C   1.06846   0.96452   0.99762   0.95470
 1252  H   0.83639
 1253  C   1.05852   1.13928   1.09699   1.17404
 1254  H   0.84375
 1255  H   0.81074
 1256  H   0.81079
 1257  C   1.07593   0.83451   0.75194   0.78144
 1258  O   1.88391   1.49978   1.59934   1.64955
 1259  N   1.54300   1.31129   1.51254   1.14412
 1260  H   0.67610
 1261  C   1.06248   0.92443   1.14570   1.10576
 1262  H   0.82639
 1263  H   0.82961
 1264  H   0.83930
 1265  H   0.84113
 1266  C   1.10470   0.72512   0.79428   0.87703
 1267  O   1.88386   1.53332   1.36182   1.88306
 1268  N   1.54271   1.48730   1.35105   1.14821
 1269  H   0.67708
 1270  C   1.07273   1.11673   0.96741   0.82297
 1271  H   0.80301
 1272  C   1.05754   1.09051   1.02756   1.15006
 1273  H   0.83804
 1274  H   0.82186
 1275  C   1.06440   0.97791   0.95085   0.96868
 1276  C   1.08290   1.02059   0.99442   1.05869
 1277  H   0.83917
 1278  C   1.08233   1.04757   1.02724   0.99787
 1279  H   0.84445
 1280  C   1.08135   1.00701   1.05545   1.02641
 1281  H   0.84965
 1282  C   1.08072   1.02417   1.00419   1.05576
 1283  H   0.85464
 1284  C   1.08294   1.05807   1.02591   0.99548
 1285  H   0.83943
 1286  C   1.07996   0.76697   0.78587   0.79905
 1287  O   1.88370   1.53994   1.68123   1.53444
 1288  N   1.53631   1.17510   1.34746   1.43078
 1289  H   0.67266
 1290  C   1.05779   1.14230   0.97551   0.99852
 1291  H   0.81494
 1292  H   0.78964
 1293  C   1.07429   0.78911   0.75762   0.80203
 1294  O   1.88100   1.53936   1.38021   1.84086
 1295  N   1.53631   1.41128   1.37850   1.17750
 1296  H   0.65096
 1297  C   1.07408   1.00247   1.19800   0.87805
 1298  H   0.81321
 1299  H   0.79440
 1300  C   1.08224   0.77443   0.74487   0.80741
 1301  O   1.88286   1.52181   1.53273   1.73139
 1302  N   1.56479   1.44488   1.16618   1.26724
 1303  C   1.07082   1.06933   0.87074   1.05663
 1304  H   0.83570
 1305  H   0.84084
 1306  C   1.05712   1.04762   1.13621   1.05917
 1307  H   0.84523
 1308  H   0.80792
 1309  C   1.06101   1.08167   0.98389   1.17233
 1310  H   0.83545
 1311  H   0.81927
 1312  C   1.07354   1.05282   1.00067   0.86831
 1313  H   0.81298
 1314  C   1.08818   0.76358   0.76838   0.82873
 1315  O   1.88392   1.42682   1.43567   1.88339
 1316  N   1.54312   1.40342   1.48368   1.11759
 1317  H   0.64352
 1318  C   1.08221   1.04965   1.11401   0.89104
 1319  H   0.80069
 1320  H   0.78735
 1321  C   1.08828   0.82555   0.73035   0.77833
 1322  O   1.88491   1.70325   1.72971   1.32927
 1323  N   1.55112   1.23254   1.41128   1.34472
 1324  H   0.68848
 1325  C   1.07564   0.85980   1.06386   0.97827
 1326  H   0.82183
 1327  C   1.05962   1.16902   1.07564   0.97654
 1328  H   0.83501
 1329  H   0.83883
 1330  C   1.05818   1.13850   1.07488   1.02365
 1331  H   0.82463
 1332  H   0.87167
 1333  C   1.06373   1.08738   1.09985   0.78147
 1334  H   0.85045
 1335  H   0.81926
 1336  N   1.53280   1.62698   1.28989   1.09333
 1337  H   0.64872
 1338  C   0.97599   0.83627   0.80288   0.79455
 1339  N   1.50146   1.56336   1.25853   1.24813
 1340  H   0.67472
 1341  H   0.62637
 1342  N   1.50404   1.55700   1.35352   1.14112
 1343  H   0.64452
 1344  H   0.63722
 1345  C   1.08262   0.75756   0.77382   0.84398
 1346  O   1.88756   1.48118   1.64720   1.56793
 1347  N   1.54312   1.54487   1.19786   1.24079
 1348  H   0.67353
 1349  C   1.08997   0.99856   1.00959   0.91847
 1350  H   0.79761
 1351  C   1.08596   0.93047   0.92610   0.87630
 1352  H   0.85157
 1353  C   1.05837   1.09837   1.12803   1.20413
 1354  H   0.82465
 1355  H   0.83345
 1356  H   0.83152
 1357  O   1.84261   1.58468   1.64189   1.57082
 1358  H   0.62434
 1359  C   1.07923   0.80931   0.78988   0.75860
 1360  O   1.88640   1.54242   1.79532   1.37603
 1361  N   1.55288   1.32718   1.29593   1.37728
 1362  H   0.65163
 1363  C   1.07390   0.98898   0.92674   0.99357
 1364  H   0.81700
 1365  C   1.05774   1.09647   1.06913   1.08564
 1366  H   0.84069
 1367  H   0.83258
 1368  C   1.06142   0.97122   0.97580   1.05875
 1369  C   1.08300   0.97390   1.08110   0.99616
 1370  H   0.84452
 1371  C   1.08328   1.08151   0.99540   1.00838
 1372  H   0.80529
 1373  C   1.06587   0.82623   0.89584   0.91553
 1374  O   1.84143   1.46873   1.53985   1.69606
 1375  H   0.63928
 1376  C   1.07403   0.99016   1.09178   1.06856
 1377  H   0.84604
 1378  C   1.08146   1.06491   0.99841   0.99749
 1379  H   0.85811
 1380  C   1.08170   0.77652   0.73394   0.82058
 1381  O   1.88474   1.39051   1.55595   1.82919
 1382  N   1.55036   1.20058   1.60160   1.14818
 1383  H   0.66071
 1384  C   1.08720   1.11697   1.03477   0.83730
 1385  H   0.82117
 1386  C   1.08254   0.83231   0.89099   1.00005
 1387  H   0.86810
 1388  C   1.05718   1.09867   1.14102   1.18968
 1389  H   0.83136
 1390  H   0.84546
 1391  H   0.84150
 1392  O   1.84701   1.32400   1.76622   1.66700
 1393  H   0.61638
 1394  C   1.08201   0.82820   0.76400   0.79186
 1395  O   1.88734   1.29182   1.70677   1.67694
 1396  N   1.54290   1.22797   1.27097   1.47599
 1397  H   0.64936
 1398  C   1.07064   0.98379   1.04037   1.07603
 1399  H   0.84405
 1400  H   0.80864
 1401  C   1.07031   0.85093   0.72012   0.75170
 1402  O   1.88497   1.70093   1.45741   1.55971
 1403  N   1.55351   1.14741   1.51369   1.33239
 1404  H   0.67992
 1405  C   1.07063   0.82925   0.98745   1.12855
 1406  H   0.81457
 1407  C   1.05330   1.16415   0.99031   1.05260
 1408  H   0.83920
 1409  H   0.83634
 1410  C   1.05975   1.20521   1.01227   1.13820
 1411  H   0.84280
 1412  H   0.82632
 1413  C   1.06706   0.72408   0.72114   0.72877
 1414  O   1.88786   1.47199   1.82225   1.63464
 1415  O   1.88498   1.51806   1.58690   1.81436
 1416  C   1.08668   0.77113   0.86235   0.75460
 1417  O   1.88735   1.64838   1.65292   1.40929
 1418  N   1.54583   1.31029   1.19213   1.47860
 1419  H   0.65329
 1420  C   1.07218   1.06269   0.88102   1.00783
 1421  H   0.84367
 1422  C   1.05449   1.01864   1.03245   0.97087
 1423  H   0.83624
 1424  C   1.05590   1.17738   1.04847   1.19323
 1425  H   0.84547
 1426  H   0.83582
 1427  H   0.83785
 1428  C   1.05457   1.18129   1.16757   1.06154
 1429  H   0.84097
 1430  H   0.83975
 1431  H   0.85201
 1432  C   1.07559   0.77110   0.73148   0.84215
 1433  O   1.88367   1.36371   1.63735   1.76940
 1434  N   1.53828   1.27314   1.47294   1.21115
 1435  H   0.66900
 1436  C   1.07708   1.00731   1.05452   0.86800
 1437  H   0.82288
 1438  C   1.06066   1.02694   1.01619   0.97726
 1439  H   0.84086
 1440  C   1.05418   1.18409   1.09806   1.12142
 1441  H   0.84082
 1442  H   0.84095
 1443  H   0.85093
 1444  C   1.05733   1.18950   1.16650   1.05211
 1445  H   0.84608
 1446  H   0.83585
 1447  H   0.83852
 1448  C   1.08133   0.80665   0.78616   0.75118
 1449  O   1.88312   1.81175   1.47376   1.46044
 1450  N   1.53598   1.23682   1.43144   1.31642
 1451  H   0.66426
 1452  C   1.07962   0.90421   0.96831   1.14834
 1453  H   0.80568
 1454  C   1.07974   0.93494   0.82427   0.98328
 1455  H   0.86587
 1456  C   1.05745   1.09506   1.13581   1.19616
 1457  H   0.82530
 1458  H   0.82219
 1459  H   0.84105
 1460  O   1.84754   1.47787   1.49417   1.78197
 1461  H   0.64870
 1462  C   1.07059   0.75378   0.82627   0.79806
 1463  O   1.88058   1.50671   1.88255   1.36397
 1464  N   1.53717   1.55046   1.12180   1.29446
 1465  H   0.65730
 1466  C   1.05408   1.16769   0.87315   1.13557
 1467  H   0.83016
 1468  H   0.83731
 1469  H   0.85121
 1470  H   0.82755
 1471  C   1.10844   0.72197   0.77572   0.90308
 1472  O   1.87917   1.50035   1.39727   1.89103
 1473  N   1.54804   1.50773   1.35861   1.13688
 1474  H   0.67041
 1475  C   1.07825   1.08310   1.04109   0.80190
 1476  H   0.80395
 1477  C   1.05900   1.13418   0.99918   1.10145
 1478  H   0.81825
 1479  H   0.82210
 1480  C   1.06601   0.97572   0.99260   1.00504
 1481  C   1.08223   0.99088   1.02496   1.00496
 1482  H   0.83766
 1483  C   1.07636   1.10506   1.04966   1.06610
 1484  H   0.82071
 1485  C   1.07255   0.88665   0.88223   0.88000
 1486  O   1.83867   1.35504   1.61313   1.73290
 1487  H   0.61922
 1488  C   1.07859   0.98849   1.09947   1.09634
 1489  H   0.82147
 1490  C   1.08793   1.07807   0.97913   0.96942
 1491  H   0.83546
 1492  C   1.08082   0.79976   0.76894   0.79196
 1493  O   1.88631   1.81379   1.69944   1.28019
 1494  N   1.53474   1.25598   1.50888   1.18463
 1495  H   0.67107
 1496  C   1.06143   0.92030   1.08961   1.16673
 1497  H   0.83402
 1498  H   0.82997
 1499  H   0.83876
 1500  H   0.82497
 1501  C   1.10800   0.78633   0.88386   0.71630
 1502  O   1.88013   1.43043   1.87070   1.50919
 1503  N   1.55063   1.37512   1.18532   1.44519
 1504  H   0.64422
 1505  C   1.07868   0.96554   0.86321   1.12900
 1506  H   0.81514
 1507  C   1.05975   0.98015   0.99645   1.07629
 1508  H   0.84642
 1509  C   1.05206   1.15822   1.06269   1.17606
 1510  H   0.84460
 1511  H   0.84440
 1512  H   0.84200
 1513  C   1.04779   0.99972   1.12979   1.08526
 1514  H   0.86669
 1515  H   0.85358
 1516  C   1.04899   1.11621   1.12957   1.14899
 1517  H   0.85855
 1518  H   0.85671
 1519  H   0.84142
 1520  C   1.07247   0.85981   0.73788   0.75013
 1521  O   1.87626   1.57630   1.55623   1.67374
 1522  N   1.54214   1.18485   1.41748   1.37462
 1523  H   0.66200
 1524  C   1.07133   0.87907   1.16322   1.10822
 1525  H   0.84321
 1526  H   0.83230
 1527  H   0.83438
 1528  H   0.82777
 1529  C   1.10751   0.84814   0.73326   0.82092
 1530  O   1.88535   1.81635   1.62631   1.36662
 1531  N   1.53777   1.25348   1.40309   1.30532
 1532  H   0.64784
 1533  C   1.05916   0.89168   1.04067   1.02439
 1534  H   0.81946
 1535  C   1.06062   1.03208   1.11484   1.11444
 1536  H   0.82479
 1537  H   0.84707
 1538  C   1.04451   0.99051   0.96313   1.06026
 1539  H   0.88030
 1540  C   1.05454   1.16286   1.06827   1.18082
 1541  H   0.83833
 1542  H   0.84802
 1543  H   0.85375
 1544  C   1.05249   1.12309   1.17258   1.10786
 1545  H   0.85715
 1546  H   0.84750
 1547  H   0.84121
 1548  C   1.07856   0.72935   0.86462   0.77470
 1549  O   1.88181   1.57635   1.45157   1.73542
 1550  N   1.54010   1.57251   1.21287   1.19372
 1551  H   0.66048
 1552  C   1.07177   1.02071   0.93489   0.96075
 1553  H   0.81147
 1554  C   1.05669   1.17065   1.07920   0.99256
 1555  H   0.82400
 1556  H   0.82728
 1557  C   1.05682   1.12999   1.08819   1.03624
 1558  H   0.85368
 1559  H   0.82350
 1560  C   1.06367   1.15818   0.94514   0.90225
 1561  H   0.81557
 1562  H   0.83631
 1563  N   1.52411   1.16124   1.42463   1.39831
 1564  H   0.63935
 1565  C   0.99154   0.79152   0.81259   0.81872
 1566  N   1.51732   1.11694   1.46798   1.48659
 1567  H   0.65545
 1568  H   0.63905
 1569  N   1.50861   1.25116   1.39996   1.41127
 1570  H   0.64166
 1571  H   0.64064
 1572  C   1.08186   0.87245   0.77252   0.74530
 1573  O   1.88770   1.60759   1.59865   1.52560
 1574  N   1.53972   1.17470   1.27143   1.51633
 1575  H   0.65739
 1576  C   1.07437   0.85682   1.08618   1.03816
 1577  H   0.82153
 1578  C   1.06144   1.16399   1.09843   0.98452
 1579  H   0.84224
 1580  H   0.83860
 1581  C   1.04758   1.08160   0.95997   0.94832
 1582  H   0.86952
 1583  C   1.05592   1.17109   1.16309   1.07731
 1584  H   0.85408
 1585  H   0.86078
 1586  H   0.84700
 1587  C   1.05680   1.15772   1.09245   1.15840
 1588  H   0.85136
 1589  H   0.86039
 1590  H   0.84544
 1591  C   1.08287   0.71472   0.76142   0.70265
 1592  O   1.88397   1.46774   1.86942   1.62296
 1593  O   1.88760   1.54743   1.59437   1.80330

 **********************
 *                    *
 * JOB ENDED NORMALLY *
 *                    *
 **********************



 TOTAL JOB TIME:            39.92 SECONDS

 == MOPAC DONE ==
