 *******************************************************************************
 **                                                                           **
 **                              MOPAC v23.2.2                                **
 **                                                                           **
 *******************************************************************************
 **          Digital Object Identifier (DOI): 10.5281/zenodo.6511958          **
 **    Visit the DOI location for information on how to cite this program.    **
 *******************************************************************************

                              PM7 CALCULATION RESULTS

 *******************************************************************************
 *  CALCULATION DONE: (MAX THREADS = 12)             Tue Jan 27 16:08:40 2026  *
 *  PM7        - The PM7 Hamiltonian to be used
 *  MOZYME     - USE LOCALIZED M.O.s IN SOLVING THE SCF EQUATIONS
 *
 *
 *
 *                 CHARGE ON SYSTEM = +2
 *
 *
 *
 *  EPS=78.4   - USE ANDREAS KLAMT'S COSMO IMPLICIT SOLVATION MODEL
 *  1SCF       - DO 1 SCF AND THEN STOP 
 *  T=         - A TIME OF 172800.0 SECONDS REQUESTED
 *  DUMP=N     - RESTART FILE WRITTEN EVERY 7200.0 SECONDS REQUESTED
 *******************************************************************************
PM7 1SCF MOZYME CHARGE=2 EPS=78.4


   ATOM   CHEMICAL          X               Y               Z
  NUMBER   SYMBOL      (ANGSTROMS)     (ANGSTROMS)     (ANGSTROMS)

     1       H         71.69100000  *  165.23700000  * -45.36000000  *
     2       C         70.72700000  *  165.64400000  * -45.02500000  *
     3       O         70.67100000  *  166.69300000  * -44.40000000  *
     4       N         69.64800000  *  164.94600000  * -45.35400000  *
     5       H         69.74300000  *  164.08600000  * -45.86500000  *
     6       C         68.31800000  *  165.37700000  * -44.95100000  *
     7       H         68.30400000  *  166.44500000  * -44.75000000  *
     8       C         67.27900000  *  165.08100000  * -46.05800000  *
     9       H         67.27200000  *  164.02200000  * -46.29800000  *
    10       C         65.89200000  *  165.46600000  * -45.59200000  *
    11       H         65.46400000  *  166.22900000  * -46.24500000  *
    12       H         65.23700000  *  164.60600000  * -45.62700000  *
    13       H         65.87600000  *  165.89500000  * -44.58400000  *
    14       C         67.63700000  *  165.85600000  * -47.31700000  *
    15       H         68.59400000  *  165.52900000  * -47.70800000  *
    16       H         66.87900000  *  165.66900000  * -48.07700000  *
    17       H         67.68800000  *  166.92100000  * -47.10100000  *
    18       C         67.91500000  *  164.66400000  * -43.65700000  *
    19       O         67.55300000  *  165.30600000  * -42.67600000  *
    20       N         67.98400000  *  163.33800000  * -43.65800000  *
    21       H         68.28400000  *  162.85200000  * -44.48600000  *
    22       C         67.62300000  *  162.54400000  * -42.48700000  *
    23       H         67.90600000  *  163.07600000  * -41.58100000  *
    24       C         66.12800000  *  162.23500000  * -42.45900000  *
    25       H         65.92600000  *  161.47400000  * -43.20900000  *
    26       H         65.88500000  *  161.80700000  * -41.48800000  *
    27       C         65.21300000  *  163.39800000  * -42.74000000  *
    28       H         65.33100000  *  164.15700000  * -41.96400000  *
    29       H         65.45900000  *  163.81400000  * -43.69700000  *
    30       C         63.76600000  *  162.97200000  * -42.82400000  *
    31       O         63.44700000  *  162.11400000  * -43.67900000  *
    32       O         62.94800000  *  163.49400000  * -42.03400000  *
    33       C         68.34700000  *  161.22200000  * -42.57700000  *
    34       O         68.73000000  *  160.78800000  * -43.66100000  *
    35       N         68.52400000  *  160.57500000  * -41.43500000  *
    36       H         68.03000000  *  160.89100000  * -40.60600000  *
    37       C         69.17300000  *  159.28200000  * -41.42100000  *
    38       H         69.95100000  *  159.22100000  * -42.17800000  *
    39       C         69.75600000  *  159.01000000  * -40.03200000  *
    40       H         70.21900000  *  159.94300000  * -39.71800000  *
    41       H         68.96300000  *  158.79100000  * -39.31600000  *
    42       C         70.79800000  *  157.89600000  * -39.98300000  *
    43       H         70.31100000  *  156.94100000  * -40.17400000  *
    44       H         71.53800000  *  158.07300000  * -40.76900000  *
    45       C         71.50100000  *  157.83200000  * -38.61800000  *
    46       H         70.74900000  *  157.59000000  * -37.86000000  *
    47       H         72.23100000  *  157.01800000  * -38.63800000  *
    48       C         72.18600000  *  159.16200000  * -38.26900000  *
    49       H         72.83200000  *  159.42500000  * -39.10900000  *
    50       H         71.41200000  *  159.93100000  * -38.15600000  *
    51       N         73.00000000  *  159.10500000  * -37.02500000  *
    52       H         73.70000000  *  158.37000000  * -37.07400000  *
    53       H         73.43800000  *  159.98800000  * -36.79300000  *
    54       H         72.39100000  *  158.85400000  * -36.25100000  *
    55       C         68.06200000  *  158.28700000  * -41.74800000  *
    56       O         67.16300000  *  158.08100000  * -40.94600000  *
    57       N         68.05200000  *  157.74500000  * -42.97000000  *
    58       H         68.84300000  *  157.93600000  * -43.56400000  *
    59       C         67.12900000  *  156.66600000  * -43.37900000  *
    60       H         66.10800000  *  157.05200000  * -43.36900000  *
    61       C         67.44800000  *  156.17200000  * -44.80900000  *
    62       H         68.52800000  *  156.15900000  * -44.93500000  *
    63       C         66.93400000  *  154.75200000  * -45.08800000  *
    64       H         65.85100000  *  154.71300000  * -44.96600000  *
    65       H         67.19500000  *  154.47000000  * -46.10000000  *
    66       H         67.40200000  *  154.02200000  * -44.42900000  *
    67       C         66.85600000  *  157.16000000  * -45.82900000  *
    68       H         65.76800000  *  157.08300000  * -45.83000000  *
    69       H         67.11500000  *  158.16300000  * -45.50500000  *
    70       C         67.37400000  *  156.97200000  * -47.26300000  *
    71       H         66.99000000  *  156.04800000  * -47.69200000  *
    72       H         67.04400000  *  157.80300000  * -47.88200000  *
    73       H         68.46100000  *  156.94900000  * -47.26900000  *
    74       C         67.18500000  *  155.53700000  * -42.35000000  *
    75       O         66.15200000  *  155.06600000  * -41.87600000  *
    76       N         68.40300000  *  155.15000000  * -41.96800000  *
    77       H         69.21300000  *  155.57500000  * -42.40600000  *
    78       C         68.62600000  *  154.26400000  * -40.84100000  *
    79       H         68.68500000  *  154.85600000  * -39.92800000  *
    80       H         67.78900000  *  153.57100000  * -40.74300000  *
    81       C         69.91000000  *  153.46600000  * -40.96600000  *
    82       O         70.95800000  *  153.96400000  * -41.37800000  *
    83       N         69.81600000  *  152.22000000  * -40.52800000  *
    84       H         68.89500000  *  151.87400000  * -40.29900000  *
    85       C         70.93700000  *  151.48000000  * -39.97400000  *
    86       H         71.85300000  *  152.06600000  * -40.06000000  *
    87       C         70.65800000  *  151.24900000  * -38.47800000  *
    88       H         69.82400000  *  150.55700000  * -38.36200000  *
    89       H         71.55400000  *  150.80900000  * -38.06300000  *
    90       C         70.34900000  *  152.54000000  * -37.69400000  *
    91       H         71.16900000  *  153.24700000  * -37.83600000  *
    92       H         69.44500000  *  153.00600000  * -38.09100000  *
    93       C         70.12800000  *  152.28500000  * -36.19500000  *
    94       O         69.16800000  *  151.56700000  * -35.83000000  *
    95       O         70.86100000  *  152.87400000  * -35.36700000  *
    96       C         71.12100000  *  150.18200000  * -40.76700000  *
    97       O         70.38900000  *  149.20600000  * -40.58100000  *
    98       N         72.03200000  *  150.21200000  * -41.74200000  *
    99       H         72.66200000  *  151.00500000  * -41.80400000  *
   100       C         72.16400000  *  149.16700000  * -42.75600000  *
   101       H         71.17200000  *  148.81600000  * -43.04400000  *
   102       H         72.63200000  *  149.60400000  * -43.63800000  *
   103       C         72.99400000  *  147.95700000  * -42.32200000  *
   104       O         73.52100000  *  147.87900000  * -41.21500000  *
   105       N         73.17600000  *  147.02900000  * -43.26000000  *
   106       H         72.69900000  *  147.14400000  * -44.14500000  *
   107       C         74.04500000  *  145.83700000  * -43.15700000  *
   108       H         73.79600000  *  145.28600000  * -42.25000000  *
   109       C         73.79900000  *  144.92000000  * -44.36800000  *
   110       H         74.59000000  *  144.17300000  * -44.44400000  *
   111       C         72.46000000  *  144.20200000  * -44.26700000  *
   112       H         71.64100000  *  144.92000000  * -44.25300000  *
   113       H         72.35100000  *  143.54300000  * -45.12800000  *
   114       H         72.44600000  *  143.59400000  * -43.36300000  *
   115       O         73.77700000  *  145.71300000  * -45.52900000  *
   116       H         73.27400000  *  145.24300000  * -46.23200000  *
   117       C         75.54400000  *  146.15100000  * -43.10200000  *
   118       O         76.29800000  *  145.33100000  * -42.58600000  *
   119       N         75.96800000  *  147.32500000  * -43.59700000  *
   120       H         75.27000000  *  147.88600000  * -44.05500000  *
   121       C         77.38000000  *  147.72100000  * -43.76100000  *
   122       H         78.01000000  *  147.07600000  * -43.14700000  *
   123       C         77.79300000  *  147.52700000  * -45.23300000  *
   124       H         77.18100000  *  148.17500000  * -45.86100000  *
   125       H         78.83200000  *  147.83100000  * -45.35600000  *
   126       C         77.69400000  *  146.10700000  * -45.73400000  *
   127       C         78.62500000  *  145.15800000  * -45.28300000  *
   128       H         79.42300000  *  145.45300000  * -44.61300000  *
   129       C         78.50200000  *  143.81800000  * -45.67800000  *
   130       H         79.21000000  *  143.09300000  * -45.31000000  *
   131       C         77.44200000  *  143.42800000  * -46.52600000  *
   132       O         77.27400000  *  142.12400000  * -46.84600000  *
   133       H         77.76600000  *  141.56600000  * -46.21400000  *
   134       C         76.53100000  *  144.38900000  * -47.00800000  *
   135       H         75.71100000  *  144.08900000  * -47.64000000  *
   136       C         76.66600000  *  145.73200000  * -46.61900000  *
   137       H         75.95000000  *  146.46300000  * -46.96500000  *
   138       C         77.71200000  *  149.16800000  * -43.34900000  *
   139       O         78.84600000  *  149.59600000  * -43.54600000  *
   140       N         76.76600000  *  149.94400000  * -42.80900000  *
   141       H         75.86200000  *  149.55400000  * -42.58900000  *
   142       C         76.98200000  *  151.36100000  * -42.48400000  *
   143       H         77.53100000  *  151.43900000  * -41.54800000  *
   144       H         77.59500000  *  151.81200000  * -43.25600000  *
   145       C         75.68400000  *  152.16000000  * -42.35000000  *
   146       O         74.61600000  *  151.56900000  * -42.15800000  *
   147       N         75.75500000  *  153.49500000  * -42.44900000  *
   148       H         76.58800000  *  153.89400000  * -42.85900000  *
   149       C         74.59200000  *  154.32600000  * -42.21200000  *
   150       H         73.82600000  *  153.78000000  * -41.65800000  *
   151       C         74.95900000  *  155.54800000  * -41.37000000  *
   152       H         75.70700000  *  156.13900000  * -41.89300000  *
   153       C         73.73100000  *  156.40900000  * -41.13300000  *
   154       H         72.94300000  *  155.80300000  * -40.68200000  *
   155       H         73.98600000  *  157.21200000  * -40.45000000  *
   156       H         73.36800000  *  156.84900000  * -42.06500000  *
   157       C         75.54500000  *  155.09600000  * -40.05300000  *
   158       H         76.46000000  *  154.52800000  * -40.19800000  *
   159       H         75.77700000  *  155.95300000  * -39.42300000  *
   160       H         74.80500000  *  154.48400000  * -39.53200000  *
   161       C         74.01900000  *  154.79200000  * -43.53700000  *
   162       O         74.76100000  *  155.18400000  * -44.43700000  *
   163       N         72.70000000  *  154.66000000  * -43.66600000  *
   164       H         72.17600000  *  154.34600000  * -42.85300000  *
   165       C         71.91800000  *  155.10100000  * -44.82200000  *
   166       H         72.57300000  *  155.15500000  * -45.68900000  *
   167       C         70.77000000  *  154.11900000  * -45.14400000  *
   168       H         69.93100000  *  154.31200000  * -44.47600000  *
   169       C         70.30700000  *  154.33200000  * -46.59000000  *
   170       H         71.11500000  *  154.09700000  * -47.28400000  *
   171       H         69.45500000  *  153.68500000  * -46.80500000  *
   172       H         70.00800000  *  155.36700000  * -46.74200000  *
   173       C         71.15000000  *  152.64400000  * -44.96600000  *
   174       H         72.04600000  *  152.41600000  * -45.53700000  *
   175       H         71.32400000  *  152.42600000  * -43.91100000  *
   176       H         70.32900000  *  152.01100000  * -45.30500000  *
   177       C         71.35700000  *  156.49100000  * -44.53000000  *
   178       O         70.64000000  *  156.65000000  * -43.53700000  *
   179       N         71.62500000  *  157.49000000  * -45.37400000  *
   180       H         72.23900000  *  157.32200000  * -46.16900000  *
   181       C         71.01800000  *  158.79600000  * -45.21900000  *
   182       H         70.37900000  *  158.84300000  * -44.33800000  *
   183       C         72.10000000  *  159.86100000  * -45.06900000  *
   184       H         72.79900000  *  159.78100000  * -45.90500000  *
   185       H         71.63400000  *  160.84400000  * -45.14300000  *
   186       C         72.87100000  *  159.84300000  * -43.76800000  *
   187       C         72.34700000  *  160.43100000  * -42.61900000  *
   188       H         71.37700000  *  160.90600000  * -42.66800000  *
   189       C         73.06400000  *  160.45200000  * -41.42500000  *
   190       H         72.63300000  *  160.94600000  * -40.56800000  *
   191       C         74.33000000  *  159.87400000  * -41.37100000  *
   192       O         75.04700000  *  159.90100000  * -40.18700000  *
   193       H         74.69700000  *  160.54100000  * -39.56800000  *
   194       C         74.87500000  *  159.27800000  * -42.50300000  *
   195       H         75.78500000  *  158.71900000  * -42.41900000  *
   196       C         74.14000000  *  159.26700000  * -43.69600000  *
   197       H         74.51800000  *  158.73300000  * -44.56500000  *
   198       C         70.16700000  *  159.17400000  * -46.42900000  *
   199       O         70.41800000  *  158.72400000  * -47.55600000  *
   200       N         69.02600000  *  159.82600000  * -46.21200000  *
   201       H         68.83500000  *  160.13100000  * -45.26400000  *
   202       C         68.29400000  *  160.50400000  * -47.28200000  *
   203       H         68.28600000  *  159.90200000  * -48.19300000  *
   204       C         66.84900000  *  160.81900000  * -46.84700000  *
   205       H         66.33500000  *  159.89100000  * -46.60800000  *
   206       H         66.86600000  *  161.44000000  * -45.94900000  *
   207       C         66.04300000  *  161.53300000  * -47.94400000  *
   208       H         66.52700000  *  162.47400000  * -48.20800000  *
   209       H         66.00500000  *  160.89800000  * -48.83000000  *
   210       C         64.61400000  *  161.82500000  * -47.45900000  *
   211       H         64.14300000  *  160.89400000  * -47.13800000  *
   212       H         64.66100000  *  162.50300000  * -46.60500000  *
   213       C         63.77900000  *  162.45900000  * -48.57900000  *
   214       H         64.31600000  *  163.33000000  * -48.96800000  *
   215       H         63.68400000  *  161.73100000  * -49.39300000  *
   216       N         62.43100000  *  162.86900000  * -48.10100000  *
   217       H         62.49400000  *  163.56500000  * -47.37200000  *
   218       H         61.88500000  *  163.27400000  * -48.85000000  *
   219       H         61.91200000  *  162.08500000  * -47.73200000  *
   220       C         69.10000000  *  161.76200000  * -47.51000000  *
   221       O         69.32900000  *  162.49600000  * -46.55100000  *
   222       N         69.55500000  *  162.00600000  * -48.72500000  *
   223       H         69.34400000  *  161.34200000  * -49.46700000  *
   224       C         70.34900000  *  163.18200000  * -49.01700000  *
   225       H         70.22500000  *  163.93500000  * -48.24000000  *
   226       C         71.81400000  *  162.79200000  * -49.07000000  *
   227       H         71.97800000  *  162.06700000  * -49.86400000  *
   228       H         72.42900000  *  163.67700000  * -49.23900000  *
   229       H         72.10500000  *  162.33200000  * -48.12600000  *
   230       C         69.94400000  *  163.83800000  * -50.32200000  *
   231       O         69.22100000  *  163.25100000  * -51.12800000  *
   232       N         70.40700000  *  165.06400000  * -50.52400000  *
   233       H         70.93200000  *  165.53000000  * -49.79600000  *
   234       C         70.10800000  *  165.77900000  * -51.74600000  *
   235       H         69.54100000  *  165.15900000  * -52.44400000  *
   236       H         69.52200000  *  166.69100000  * -51.53000000  *
   237       H         71.05900000  *  166.04700000  * -52.23900000  *
   238       H         68.08600000  *  164.80700000  * -56.55000000  *
   239       C         68.21200000  *  164.39600000  * -55.53600000  *
   240       O         69.28600000  *  164.50800000  * -54.94200000  *
   241       N         67.13500000  *  163.82300000  * -55.01100000  *
   242       H         66.34000000  *  163.66800000  * -55.61500000  *
   243       C         67.13600000  *  163.21200000  * -53.68800000  *
   244       H         67.86300000  *  163.70700000  * -53.05000000  *
   245       C         65.75500000  *  163.32300000  * -53.02900000  *
   246       H         64.97700000  *  163.06900000  * -53.75000000  *
   247       C         65.64800000  *  162.36600000  * -51.85200000  *
   248       H         66.47200000  *  162.51800000  * -51.15200000  *
   249       H         64.69700000  *  162.53800000  * -51.34700000  *
   250       H         65.65200000  *  161.33900000  * -52.20000000  *
   251       C         65.54000000  *  164.75000000  * -52.56600000  *
   252       H         65.62600000  *  165.42400000  * -53.41600000  *
   253       H         64.53500000  *  164.85100000  * -52.15900000  *
   254       H         66.28400000  *  165.00300000  * -51.81000000  *
   255       C         67.52600000  *  161.76000000  * -53.84700000  *
   256       O         66.97900000  *  161.02800000  * -54.68200000  *
   257       N         68.49600000  *  161.34900000  * -53.04800000  *
   258       H         68.91100000  *  161.99700000  * -52.39100000  *
   259       C         69.01100000  *  159.99200000  * -53.10200000  *
   260       H         68.34600000  *  159.34100000  * -53.67900000  *
   261       C         70.37400000  *  159.97400000  * -53.81600000  *
   262       H         70.77500000  *  158.96500000  * -53.87500000  *
   263       C         70.21400000  *  160.50700000  * -55.21300000  *
   264       H         69.95700000  *  161.56600000  * -55.19000000  *
   265       H         71.15100000  *  160.39100000  * -55.75600000  *
   266       H         69.44200000  *  159.95000000  * -55.73600000  *
   267       C         71.37900000  *  160.85000000  * -53.05700000  *
   268       H         71.56500000  *  160.44500000  * -52.06400000  *
   269       H         72.31500000  *  160.84900000  * -53.61300000  *
   270       H         71.03600000  *  161.88400000  * -52.98400000  *
   271       C         69.19200000  *  159.37200000  * -51.72900000  *
   272       O         69.02000000  *  160.03600000  * -50.68600000  *
   273       N         69.38000000  *  158.05800000  * -51.70400000  *
   274       H         69.45500000  *  157.56500000  * -52.58900000  *
   275       C         69.75700000  *  157.32100000  * -50.51300000  *
   276       H         69.47700000  *  157.88300000  * -49.62400000  *
   277       C         68.99900000  *  155.99900000  * -50.47700000  *
   278       H         69.22400000  *  155.42600000  * -51.37400000  *
   279       H         69.29300000  *  155.42700000  * -49.59700000  *
   280       H         67.92900000  *  156.20000000  * -50.43200000  *
   281       C         71.27500000  *  157.14100000  * -50.53800000  *
   282       O         71.81000000  *  156.46000000  * -51.41900000  *
   283       N         71.97000000  *  157.79100000  * -49.60300000  *
   284       H         71.44500000  *  158.28300000  * -48.88900000  *
   285       C         73.41300000  *  157.73400000  * -49.53500000  *
   286       H         73.80300000  *  157.43200000  * -50.50200000  *
   287       C         73.96100000  *  159.11400000  * -49.18200000  *
   288       H         73.49200000  *  159.84000000  * -49.85100000  *
   289       H         73.62800000  *  159.35800000  * -48.16900000  *
   290       C         75.47300000  *  159.31600000  * -49.26600000  *
   291       H         75.96900000  *  158.63700000  * -48.57100000  *
   292       C         75.94900000  *  159.02000000  * -50.68400000  *
   293       H         75.44100000  *  159.71800000  * -51.34800000  *
   294       H         77.02400000  *  159.18800000  * -50.76300000  *
   295       H         75.74700000  *  157.98700000  * -50.96800000  *
   296       C         75.80400000  *  160.74000000  * -48.87900000  *
   297       H         75.43700000  *  160.94600000  * -47.87600000  *
   298       H         76.88200000  *  160.87900000  * -48.92200000  *
   299       H         75.32000000  *  161.42900000  * -49.57600000  *
   300       C         73.82100000  *  156.71600000  * -48.48500000  *
   301       O         73.39600000  *  156.78100000  * -47.33400000  *
   302       N         74.65000000  *  155.75400000  * -48.88200000  *
   303       H         74.89400000  *  155.73200000  * -49.87000000  *
   304       C         75.12700000  *  154.64000000  * -48.05300000  *
   305       H         74.61000000  *  154.63500000  * -47.09200000  *
   306       C         74.82000000  *  153.33200000  * -48.81700000  *
   307       H         74.27400000  *  153.57100000  * -49.73200000  *
   308       H         75.74500000  *  152.84800000  * -49.12600000  *
   309       C         73.96200000  *  152.30900000  * -48.06600000  *
   310       H         73.16900000  *  152.81900000  * -47.52200000  *
   311       H         73.49700000  *  151.68200000  * -48.82600000  *
   312       C         74.78800000  *  151.42600000  * -47.11400000  *
   313       H         75.72000000  *  151.13600000  * -47.60200000  *
   314       H         75.04600000  *  152.00900000  * -46.22600000  *
   315       C         74.04800000  *  150.14500000  * -46.68500000  *
   316       H         74.69100000  *  149.60900000  * -45.98000000  *
   317       H         73.13100000  *  150.42700000  * -46.15300000  *
   318       N         73.71900000  *  149.26300000  * -47.84400000  *
   319       H         74.52500000  *  149.06800000  * -48.42600000  *
   320       H         73.33400000  *  148.35200000  * -47.56300000  *
   321       H         72.98500000  *  149.67200000  * -48.41300000  *
   322       C         76.62200000  *  154.83400000  * -47.79300000  *
   323       O         77.41400000  *  154.65000000  * -48.71000000  *
   324       N         77.01700000  *  155.22600000  * -46.58100000  *
   325       H         76.29800000  *  155.26800000  * -45.86500000  *
   326       C         78.42200000  *  155.28900000  * -46.15900000  *
   327       H         79.06600000  *  155.59300000  * -46.98900000  *
   328       C         78.56700000  *  156.26000000  * -44.97900000  *
   329       H         78.02700000  *  155.87500000  * -44.10900000  *
   330       H         79.62500000  *  156.33900000  * -44.73000000  *
   331       C         78.01500000  *  157.64300000  * -45.34000000  *
   332       H         78.45100000  *  157.95800000  * -46.27300000  *
   333       H         76.93600000  *  157.57500000  * -45.50000000  *
   334       C         78.25100000  *  158.72500000  * -44.27900000  *
   335       H         77.97800000  *  159.68000000  * -44.73200000  *
   336       H         77.56000000  *  158.53300000  * -43.46900000  *
   337       C         79.67700000  *  158.85000000  * -43.70900000  *
   338       H         80.38400000  *  158.36300000  * -44.39700000  *
   339       H         79.95000000  *  159.91100000  * -43.68600000  *
   340       N         79.78800000  *  158.26900000  * -42.33500000  *
   341       H         79.63700000  *  157.26100000  * -42.37000000  *
   342       H         80.69600000  *  158.42600000  * -41.93200000  *
   343       H         79.10400000  *  158.64600000  * -41.70100000  *
   344       C         78.82300000  *  153.89100000  * -45.72900000  *
   345       O         78.09100000  *  153.31500000  * -44.93700000  *
   346       N         79.90700000  *  153.32000000  * -46.24700000  *
   347       H         80.40500000  *  153.76400000  * -47.01000000  *
   348       C         80.34300000  *  152.02200000  * -45.76800000  *
   349       H         79.49500000  *  151.49800000  * -45.35900000  *
   350       C         80.94400000  *  151.18600000  * -46.89500000  *
   351       H         81.78600000  *  151.78200000  * -47.16900000  *
   352       C         81.42400000  *  149.85200000  * -46.34500000  *
   353       H         80.65600000  *  149.35200000  * -45.75200000  *
   354       H         81.67900000  *  149.19900000  * -47.17900000  *
   355       H         82.34500000  *  149.95700000  * -45.76100000  *
   356       C         79.89700000  *  150.97600000  * -47.99700000  *
   357       H         79.60200000  *  151.87000000  * -48.50000000  *
   358       H         80.28300000  *  150.30500000  * -48.75000000  *
   359       C         78.59100000  *  150.36100000  * -47.52600000  *
   360       H         78.17700000  *  150.90100000  * -46.69000000  *
   361       H         77.89400000  *  150.33700000  * -48.36300000  *
   362       H         78.77100000  *  149.33300000  * -47.20900000  *
   363       C         81.33300000  *  152.07100000  * -44.61400000  *
   364       O         82.16700000  *  152.98000000  * -44.51900000  *
   365       N         81.21100000  *  151.07100000  * -43.74300000  *
   366       H         80.50300000  *  150.36100000  * -43.92800000  *
   367       C         82.04400000  *  150.90200000  * -42.55200000  *
   368       H         81.47500000  *  151.18100000  * -41.66300000  *
   369       H         82.35800000  *  149.86100000  * -42.45900000  *
   370       H         82.94700000  *  151.51400000  * -42.62000000  *
   371       H         81.25700000  *  144.04600000  * -57.89900000  *
   372       C         80.50000000  *  144.84100000  * -57.88800000  *
   373       O         79.71500000  *  144.99000000  * -58.82400000  *
   374       N         80.49900000  *  145.60300000  * -56.79700000  *
   375       H         81.28000000  *  145.52500000  * -56.16600000  *
   376       C         79.57000000  *  146.70600000  * -56.61200000  *
   377       H         78.57500000  *  146.34400000  * -56.42300000  *
   378       C         80.00500000  *  147.61000000  * -55.44200000  *
   379       H         80.89800000  *  148.18000000  * -55.68500000  *
   380       C         78.90600000  *  148.60800000  * -55.12500000  *
   381       H         77.92000000  *  148.14100000  * -55.17600000  *
   382       H         79.04500000  *  148.98700000  * -54.11600000  *
   383       H         78.93800000  *  149.43600000  * -55.83300000  *
   384       C         80.32100000  *  146.76200000  * -54.20900000  *
   385       H         81.19200000  *  146.13400000  * -54.40600000  *
   386       H         80.59400000  *  147.42200000  * -53.38900000  *
   387       C         79.18400000  *  145.87900000  * -53.76500000  *
   388       H         78.77800000  *  145.31100000  * -54.59400000  *
   389       H         79.50900000  *  145.12200000  * -53.06500000  *
   390       H         78.38800000  *  146.48300000  * -53.33500000  *
   391       C         79.54300000  *  147.54500000  * -57.87900000  *
   392       O         78.48200000  *  147.77900000  * -58.45100000  *
   393       N         80.72300000  *  147.98900000  * -58.30900000  *
   394       H         81.55800000  *  147.70100000  * -57.81200000  *
   395       C         80.85900000  *  148.80400000  * -59.51100000  *
   396       H         80.33900000  *  149.74600000  * -59.38600000  *
   397       H         81.92800000  *  148.98500000  * -59.72900000  *
   398       H         80.37800000  *  148.32200000  * -60.38100000  *
   399       H         78.96400000  *  146.08700000  * -61.65600000  *
   400       C         77.87300000  *  146.08700000  * -61.51600000  *
   401       O         77.11500000  *  145.89500000  * -62.46400000  *
   402       N         77.44600000  *  146.31800000  * -60.28000000  *
   403       H         78.13400000  *  146.42500000  * -59.54900000  *
   404       C         76.02800000  *  146.35200000  * -59.94500000  *
   405       H         75.53300000  *  145.47600000  * -60.35900000  *
   406       C         75.84100000  *  146.37400000  * -58.43100000  *
   407       H         76.20500000  *  147.30400000  * -58.01800000  *
   408       H         74.76300000  *  146.35700000  * -58.24200000  *
   409       C         76.47200000  *  145.22200000  * -57.65900000  *
   410       H         77.55000000  *  145.23900000  * -57.74900000  *
   411       C         76.08000000  *  145.34100000  * -56.19200000  *
   412       H         74.99900000  *  145.23000000  * -56.07700000  *
   413       H         76.57300000  *  144.55300000  * -55.62900000  *
   414       H         76.38500000  *  146.30900000  * -55.80100000  *
   415       C         75.99600000  *  143.89000000  * -58.23600000  *
   416       H         76.41500000  *  143.73000000  * -59.22900000  *
   417       H         76.32800000  *  143.07800000  * -57.59100000  *
   418       H         74.90500000  *  143.87400000  * -58.30500000  *
   419       C         75.32200000  *  147.55900000  * -60.54800000  *
   420       O         74.09500000  *  147.56800000  * -60.66200000  *
   421       N         76.08400000  *  148.63100000  * -60.82900000  *
   422       H         77.08200000  *  148.53500000  * -60.67700000  *
   423       C         75.60100000  *  149.83300000  * -61.53400000  *
   424       H         74.83700000  *  150.33500000  * -60.94100000  *
   425       H         76.43800000  *  150.53300000  * -61.75900000  *
   426       H         75.13800000  *  149.54900000  * -62.49200000  *
   427       H         62.79000000  *  145.77200000  * -59.27600000  *
   428       C         63.71000000  *  145.72000000  * -58.67500000  *
   429       O         63.77900000  *  145.02200000  * -57.66400000  *
   430       N         64.72400000  *  146.45200000  * -59.11400000  *
   431       H         64.63800000  *  147.05100000  * -59.92700000  *
   432       C         65.97100000  *  146.53500000  * -58.38100000  *
   433       H         65.88400000  *  146.09200000  * -57.38600000  *
   434       C         67.11600000  *  145.87700000  * -59.11400000  *
   435       H         67.33600000  *  146.42600000  * -60.03000000  *
   436       C         68.35100000  *  145.87800000  * -58.21400000  *
   437       H         68.14700000  *  145.31400000  * -57.31800000  *
   438       H         69.21000000  *  145.44500000  * -58.72400000  *
   439       H         68.64100000  *  146.89000000  * -57.94500000  *
   440       C         66.72800000  *  144.44400000  * -59.47800000  *
   441       H         66.54900000  *  143.87300000  * -58.56400000  *
   442       H         65.81500000  *  144.42400000  * -60.06800000  *
   443       C         67.77400000  *  143.72700000  * -60.29600000  *
   444       H         68.68300000  *  143.57700000  * -59.72200000  *
   445       H         67.37700000  *  142.75300000  * -60.59800000  *
   446       H         68.02300000  *  144.31300000  * -61.18000000  *
   447       C         66.29500000  *  148.01000000  * -58.22000000  *
   448       O         66.21200000  *  148.78000000  * -59.18400000  *
   449       N         66.55200000  *  148.44100000  * -56.98200000  *
   450       H         66.62100000  *  147.76000000  * -56.23000000  *
   451       C         66.88900000  *  149.83900000  * -56.68600000  *
   452       H         66.07400000  *  150.48100000  * -57.02000000  *
   453       C         67.08900000  *  150.05600000  * -55.17900000  *
   454       H         67.88700000  *  149.40400000  * -54.82300000  *
   455       C         67.45300000  *  151.50600000  * -54.84100000  *
   456       H         66.63200000  *  152.17500000  * -55.10100000  *
   457       H         67.65400000  *  151.58300000  * -53.77400000  *
   458       H         68.34500000  *  151.81700000  * -55.38000000  *
   459       C         65.80700000  *  149.72700000  * -54.41500000  *
   460       H         65.53300000  *  148.68300000  * -54.54200000  *
   461       H         65.98700000  *  149.89900000  * -53.36200000  *
   462       H         64.99000000  *  150.35800000  * -54.75800000  *
   463       C         68.15200000  *  150.21600000  * -57.45300000  *
   464       O         69.18000000  *  149.54600000  * -57.32800000  *
   465       N         68.08000000  *  151.28300000  * -58.25100000  *
   466       H         67.22500000  *  151.80400000  * -58.24500000  *
   467       C         69.18900000  *  151.69800000  * -59.08000000  *
   468       H         69.52500000  *  150.81900000  * -59.63900000  *
   469       C         68.73700000  *  152.76800000  * -60.08300000  *
   470       H         67.83400000  *  152.41100000  * -60.57900000  *
   471       H         68.47700000  *  153.68100000  * -59.53700000  *
   472       C         69.79100000  *  153.06900000  * -61.13100000  *
   473       H         70.72100000  *  153.35000000  * -60.64200000  *
   474       H         69.97400000  *  152.16800000  * -61.71600000  *
   475       C         69.35100000  *  154.17900000  * -62.08100000  *
   476       H         68.50200000  *  153.81400000  * -62.66100000  *
   477       H         69.02300000  *  155.05600000  * -61.52200000  *
   478       C         70.49800000  *  154.55900000  * -63.02400000  *
   479       H         71.33900000  *  154.89000000  * -62.40800000  *
   480       H         70.81900000  *  153.66100000  * -63.56600000  *
   481       N         70.11800000  *  155.62600000  * -63.99700000  *
   482       H         69.74700000  *  156.41600000  * -63.48300000  *
   483       H         70.92600000  *  155.93300000  * -64.52500000  *
   484       H         69.41500000  *  155.27800000  * -64.63600000  *
   485       C         70.36000000  *  152.21400000  * -58.25300000  *
   486       O         70.19400000  *  153.07400000  * -57.38700000  *
   487       N         71.53700000  *  151.64500000  * -58.50700000  *
   488       H         71.59600000  *  150.90400000  * -59.18600000  *
   489       C         72.75000000  *  152.07400000  * -57.83600000  *
   490       H         72.53800000  *  152.52600000  * -56.87100000  *
   491       C         73.72700000  *  150.91100000  * -57.67000000  *
   492       H         73.31500000  *  150.22100000  * -56.93700000  *
   493       H         73.77900000  *  150.36900000  * -58.62000000  *
   494       C         75.16700000  *  151.27300000  * -57.28800000  *
   495       H         75.65500000  *  151.80300000  * -58.10000000  *
   496       C         75.18300000  *  152.16500000  * -56.05900000  *
   497       H         74.60800000  *  151.72100000  * -55.25200000  *
   498       H         76.21000000  *  152.29600000  * -55.73500000  *
   499       H         74.78900000  *  153.14000000  * -56.31200000  *
   500       C         75.93300000  *  149.99400000  * -57.01300000  *
   501       H         75.98300000  *  149.42100000  * -57.93300000  *
   502       H         76.94600000  *  150.24200000  * -56.71200000  *
   503       H         75.43500000  *  149.41000000  * -56.23200000  *
   504       C         73.31900000  *  153.11300000  * -58.79500000  *
   505       O         73.76900000  *  152.77900000  * -59.89700000  *
   506       N         73.26700000  *  154.36900000  * -58.37800000  *
   507       H         72.92600000  *  154.57000000  * -57.44900000  *
   508       C         73.73400000  *  155.46600000  * -59.19700000  *
   509       H         73.47500000  *  155.26500000  * -60.23600000  *
   510       C         73.02500000  *  156.74200000  * -58.76000000  *
   511       H         73.45000000  *  157.06300000  * -57.80900000  *
   512       H         73.23600000  *  157.53300000  * -59.48700000  *
   513       C         71.51300000  *  156.60300000  * -58.58700000  *
   514       H         71.27400000  *  155.80900000  * -57.88500000  *
   515       C         70.97400000  *  157.88000000  * -58.01900000  *
   516       H         71.37000000  *  158.74600000  * -58.56000000  *
   517       H         69.88800000  *  157.89100000  * -58.09300000  *
   518       H         71.22100000  *  157.96000000  * -56.96600000  *
   519       C         70.85100000  *  156.29000000  * -59.92300000  *
   520       H         71.28300000  *  155.39700000  * -60.34200000  *
   521       H         69.78900000  *  156.14400000  * -59.75100000  *
   522       H         71.00300000  *  157.12700000  * -60.60700000  *
   523       C         75.24500000  *  155.67800000  * -59.15800000  *
   524       O         75.83900000  *  156.04700000  * -60.17600000  *
   525       N         75.86200000  *  155.44600000  * -57.99600000  *
   526       H         75.29500000  *  155.17900000  * -57.20400000  *
   527       C         77.30800000  *  155.64700000  * -57.82900000  *
   528       H         77.80800000  *  155.40400000  * -58.76600000  *
   529       C         77.60000000  *  157.11700000  * -57.51900000  *
   530       H         76.91700000  *  157.54400000  * -56.80300000  *
   531       H         78.58200000  *  157.17000000  * -57.04800000  *
   532       C         77.65600000  *  157.97500000  * -58.75600000  *
   533       O         78.67800000  *  157.91700000  * -59.48300000  *
   534       O         76.67400000  *  158.70400000  * -59.00000000  *
   535       C         77.97900000  *  154.81700000  * -56.73400000  *
   536       O         77.37100000  *  154.52100000  * -55.70400000  *
   537       N         79.24700000  *  154.47700000  * -56.96600000  *
   538       H         79.69800000  *  154.82400000  * -57.79800000  *
   539       C         80.06100000  *  153.73800000  * -56.00300000  *
   540       H         79.55400000  *  153.69900000  * -55.05200000  *
   541       C         80.36600000  *  152.29800000  * -56.50400000  *
   542       H         79.42700000  *  151.75200000  * -56.56200000  *
   543       C         80.98100000  *  152.34300000  * -57.88400000  *
   544       H         82.06600000  *  152.43300000  * -57.82100000  *
   545       H         80.74600000  *  151.41400000  * -58.37900000  *
   546       H         80.59600000  *  153.14500000  * -58.51000000  *
   547       C         81.29900000  *  151.58800000  * -55.53900000  *
   548       H         80.81100000  *  151.54900000  * -54.57200000  *
   549       H         81.47300000  *  150.57200000  * -55.87800000  *
   550       H         82.25900000  *  152.09200000  * -55.44900000  *
   551       C         81.36500000  *  154.53600000  * -55.81000000  *
   552       O         82.27000000  *  154.48900000  * -56.64700000  *
   553       N         81.45200000  *  155.28200000  * -54.71000000  *
   554       H         80.67600000  *  155.30400000  * -54.06400000  *
   555       C         82.62100000  *  156.11100000  * -54.44300000  *
   556       H         83.20500000  *  156.21800000  * -55.35800000  *
   557       H         82.32200000  *  157.12800000  * -54.14500000  *
   558       H         83.29700000  *  155.73900000  * -53.65600000  *
   559       H         84.58000000  *  155.17100000  * -47.07300000  *
   560       C         84.22500000  *  154.98400000  * -48.09100000  *
   561       O         84.63900000  *  155.65900000  * -49.04200000  *
   562       N         83.35800000  *  153.99100000  * -48.22200000  *
   563       H         83.13600000  *  153.42800000  * -47.41700000  *
   564       C         82.77600000  *  153.65100000  * -49.50600000  *
   565       H         83.37000000  *  154.04700000  * -50.31700000  *
   566       C         82.71900000  *  152.14000000  * -49.66000000  *
   567       H         83.74000000  *  151.87500000  * -49.95700000  *
   568       H         82.64400000  *  151.54600000  * -48.78400000  *
   569       C         81.82600000  *  151.61900000  * -50.77900000  *
   570       H         80.79100000  *  151.88400000  * -50.58700000  *
   571       C         82.25800000  *  152.23100000  * -52.09200000  *
   572       H         83.31100000  *  152.49100000  * -52.08900000  *
   573       H         82.09300000  *  151.51300000  * -52.88400000  *
   574       H         81.65400000  *  153.10900000  * -52.31200000  *
   575       C         81.89900000  *  150.09400000  * -50.82200000  *
   576       H         81.91300000  *  149.66400000  * -49.82700000  *
   577       H         81.05200000  *  149.70600000  * -51.39100000  *
   578       H         82.82500000  *  149.80300000  * -51.32100000  *
   579       C         81.36700000  *  154.23200000  * -49.54800000  *
   580       O         80.51800000  *  153.85700000  * -48.74500000  *
   581       N         81.13100000  *  155.16100000  * -50.46700000  *
   582       H         81.84500000  *  155.34800000  * -51.16200000  *
   583       C         79.82200000  *  155.78100000  * -50.60800000  *
   584       H         79.27400000  *  155.67000000  * -49.68700000  *
   585       C         79.96700000  *  157.27800000  * -50.86800000  *
   586       H         80.42300000  *  157.50400000  * -51.79700000  *
   587       H         78.95400000  *  157.66400000  * -50.98900000  *
   588       C         80.57600000  *  158.04300000  * -49.72300000  *
   589       C         79.79300000  *  158.48000000  * -48.65600000  *
   590       H         78.73500000  *  158.25400000  * -48.66900000  *
   591       C         80.35600000  *  159.18600000  * -47.59400000  *
   592       H         79.75300000  *  159.56200000  * -46.79700000  *
   593       C         81.71600000  *  159.45200000  * -47.58700000  *
   594       O         82.27600000  *  160.12500000  * -46.52100000  *
   595       H         83.20600000  *  160.30800000  * -46.74500000  *
   596       C         82.51400000  *  159.02600000  * -48.63700000  *
   597       H         83.58200000  *  159.23300000  * -48.65000000  *
   598       C         81.94100000  *  158.32800000  * -49.69800000  *
   599       H         82.57400000  *  157.98100000  * -50.50200000  *
   600       C         79.04800000  *  155.15800000  * -51.76500000  *
   601       O         79.54400000  *  155.08000000  * -52.88800000  *
   602       N         77.86200000  *  154.62400000  * -51.49500000  *
   603       H         77.53700000  *  154.64400000  * -50.53300000  *
   604       C         76.98000000  *  154.05400000  * -52.51100000  *
   605       H         77.50400000  *  153.99900000  * -53.45900000  *
   606       C         76.54300000  *  152.62500000  * -52.14900000  *
   607       H         75.85400000  *  152.67400000  * -51.31400000  *
   608       H         75.99500000  *  152.21900000  * -53.00100000  *
   609       C         77.67700000  *  151.65300000  * -51.78500000  *
   610       H         78.19200000  *  152.00200000  * -50.89000000  *
   611       C         77.10300000  *  150.26600000  * -51.50000000  *
   612       H         76.60400000  *  149.87500000  * -52.38900000  *
   613       H         77.90700000  *  149.58500000  * -51.21500000  *
   614       H         76.38900000  *  150.32400000  * -50.68000000  *
   615       C         78.68300000  *  151.52400000  * -52.92200000  *
   616       H         79.20400000  *  152.46800000  * -53.05800000  *
   617       H         79.41900000  *  150.76300000  * -52.67200000  *
   618       H         78.17000000  *  151.25500000  * -53.84600000  *
   619       C         75.78500000  *  154.98500000  * -52.67200000  *
   620       O         75.10000000  *  155.25900000  * -51.68200000  *
   621       N         75.54700000  *  155.50800000  * -53.87800000  *
   622       H         76.14500000  *  155.25500000  * -54.66000000  *
   623       C         74.40900000  *  156.37500000  * -54.09400000  *
   624       H         73.97600000  *  156.70200000  * -53.15000000  *
   625       C         74.83400000  *  157.63700000  * -54.81800000  *
   626       H         75.25500000  *  157.34500000  * -55.76600000  *
   627       C         73.61400000  *  158.52200000  * -55.10900000  *
   628       H         73.11700000  *  158.76900000  * -54.17500000  *
   629       H         73.94100000  *  159.43100000  * -55.61500000  *
   630       H         72.91600000  *  158.00900000  * -55.76200000  *
   631       C         75.84000000  *  158.38200000  * -53.94900000  *
   632       H         75.28100000  *  158.78400000  * -53.13000000  *
   633       H         76.65600000  *  157.75800000  * -53.60500000  *
   634       H         76.26100000  *  159.20400000  * -54.52500000  *
   635       C         73.31400000  *  155.64400000  * -54.85300000  *
   636       O         73.49500000  *  155.22100000  * -55.99400000  *
   637       N         72.20600000  *  155.39100000  * -54.16100000  *
   638       H         72.14000000  *  155.74500000  * -53.21100000  *
   639       C         71.02200000  *  154.72600000  * -54.69700000  *
   640       H         71.27000000  *  154.25400000  * -55.64400000  *
   641       C         70.55600000  *  153.64000000  * -53.72100000  *
   642       H         70.41600000  *  154.08800000  * -52.73800000  *
   643       H         69.58300000  *  153.27900000  * -54.04700000  *
   644       C         71.48800000  *  152.45000000  * -53.58800000  *
   645       C         71.36600000  *  151.35700000  * -54.46800000  *
   646       H         70.63300000  *  151.37600000  * -55.26100000  *
   647       C         72.19100000  *  150.22800000  * -54.31500000  *
   648       H         72.08800000  *  149.38600000  * -54.98700000  *
   649       C         73.14600000  *  150.19000000  * -53.28500000  *
   650       H         73.78100000  *  149.32100000  * -53.16700000  *
   651       C         73.27400000  *  151.28200000  * -52.40800000  *
   652       H         74.00100000  *  151.24500000  * -51.61100000  *
   653       C         72.45100000  *  152.41300000  * -52.56100000  *
   654       H         72.55100000  *  153.24900000  * -51.88200000  *
   655       C         69.90000000  *  155.73800000  * -54.94200000  *
   656       O         69.76500000  *  156.71400000  * -54.20300000  *
   657       N         69.07300000  *  155.51600000  * -55.96500000  *
   658       H         69.22500000  *  154.68800000  * -56.53300000  *
   659       C         67.81000000  *  156.25900000  * -56.11400000  *
   660       H         68.05500000  *  157.30600000  * -56.29400000  *
   661       C         67.02100000  *  155.74800000  * -57.33200000  *
   662       H         66.16700000  *  156.41000000  * -57.47700000  *
   663       H         67.65500000  *  155.80600000  * -58.21800000  *
   664       C         66.51400000  *  154.30600000  * -57.17000000  *
   665       H         67.37200000  *  153.64800000  * -57.03100000  *
   666       H         65.88800000  *  154.24200000  * -56.28300000  *
   667       C         65.67200000  *  153.80400000  * -58.34500000  *
   668       O         65.14800000  *  154.61500000  * -59.14300000  *
   669       O         65.49100000  *  152.56900000  * -58.43600000  *
   670       C         66.97000000  *  156.18400000  * -54.82100000  *
   671       O         66.91100000  *  155.13800000  * -54.17400000  *
   672       N         66.32700000  *  157.27800000  * -54.41000000  *
   673       H         66.36100000  *  158.12000000  * -54.96700000  *
   674       C         65.47400000  *  157.27200000  * -53.21600000  *
   675       H         65.95700000  *  156.66600000  * -52.44700000  *
   676       C         65.36000000  *  158.69400000  * -52.66400000  *
   677       H         66.36100000  *  159.06400000  * -52.44600000  *
   678       H         64.92300000  *  159.33700000  * -53.43000000  *
   679       C         64.53500000  *  158.80100000  * -51.39600000  *
   680       C         63.23100000  *  159.32800000  * -51.44000000  *
   681       H         62.81100000  *  159.66500000  * -52.37800000  *
   682       C         62.46600000  *  159.41400000  * -50.26400000  *
   683       H         61.46400000  *  159.81700000  * -50.30300000  *
   684       C         63.00000000  *  158.97100000  * -49.04200000  *
   685       H         62.40800000  *  159.03300000  * -48.13900000  *
   686       C         64.30500000  *  158.45200000  * -48.99500000  *
   687       H         64.71800000  *  158.12000000  * -48.05300000  *
   688       C         65.07200000  *  158.36500000  * -50.17000000  *
   689       H         66.07400000  *  157.96100000  * -50.13100000  *
   690       C         64.09000000  *  156.66100000  * -53.49300000  *
   691       O         63.45700000  *  156.97200000  * -54.50600000  *
   692       N         63.60200000  *  155.83900000  * -52.56000000  *
   693       H         64.18900000  *  155.62500000  * -51.76200000  *
   694       C         62.21100000  *  155.37700000  * -52.48800000  *
   695       H         61.60800000  *  155.90100000  * -53.23300000  *
   696       C         62.11500000  *  153.86400000  * -52.75600000  *
   697       H         62.83200000  *  153.34100000  * -52.12500000  *
   698       H         61.11700000  *  153.54600000  * -52.45200000  *
   699       C         62.31900000  *  153.47500000  * -54.23400000  *
   700       H         62.01700000  *  154.30200000  * -54.87700000  *
   701       C         63.77500000  *  153.11000000  * -54.52900000  *
   702       H         64.09200000  *  152.29600000  * -53.88000000  *
   703       H         63.88100000  *  152.81500000  * -55.57200000  *
   704       H         64.41600000  *  153.97200000  * -54.35100000  *
   705       C         61.45800000  *  152.26200000  * -54.59500000  *
   706       H         60.40900000  *  152.48000000  * -54.39300000  *
   707       H         61.56100000  *  152.04000000  * -55.65600000  *
   708       H         61.76100000  *  151.39400000  * -54.01300000  *
   709       C         61.63300000  *  155.72400000  * -51.11200000  *
   710       O         62.33600000  *  155.68900000  * -50.10500000  *
   711       N         60.35900000  *  156.10300000  * -51.06000000  *
   712       H         59.84000000  *  156.15000000  * -51.92800000  *
   713       C         59.77600000  *  156.78800000  * -49.90000000  *
   714       H         60.50100000  *  157.52000000  * -49.54200000  *
   715       C         58.54000000  *  157.56900000  * -50.36500000  *
   716       H         57.75900000  *  156.86100000  * -50.64300000  *
   717       H         58.18100000  *  158.17000000  * -49.53000000  *
   718       C         58.78300000  *  158.49100000  * -51.53900000  *
   719       N         58.92300000  *  158.09300000  * -52.87400000  *
   720       C         59.13400000  *  159.22100000  * -53.57500000  *
   721       H         59.28300000  *  159.26800000  * -54.64800000  *
   722       N         59.13100000  *  160.28700000  * -52.75700000  *
   723       H         59.26300000  *  161.25000000  * -53.05300000  *
   724       C         58.90900000  *  159.84800000  * -51.47000000  *
   725       H         58.84700000  *  160.45400000  * -50.57400000  *
   726       C         59.45500000  *  155.89100000  * -48.68800000  *
   727       O         59.22200000  *  156.42500000  * -47.60200000  *
   728       N         59.43900000  *  154.55900000  * -48.83800000  *
   729       H         59.64400000  *  154.17900000  * -49.75200000  *
   730       C         59.06500000  *  153.60600000  * -47.77800000  *
   731       H         59.49400000  *  153.95700000  * -46.83800000  *
   732       C         57.52600000  *  153.61200000  * -47.63800000  *
   733       H         57.21100000  *  154.62300000  * -47.37700000  *
   734       H         57.06900000  *  153.35800000  * -48.59600000  *
   735       C         56.99500000  *  152.64800000  * -46.56600000  *
   736       H         56.83300000  *  151.66900000  * -47.01400000  *
   737       H         57.73500000  *  152.54800000  * -45.77300000  *
   738       C         55.70600000  *  153.14100000  * -45.91800000  *
   739       O         55.71700000  *  153.86100000  * -44.93300000  *
   740       N         54.55000000  *  152.77200000  * -46.42700000  *
   741       H         53.72200000  *  153.11700000  * -45.96600000  *
   742       H         54.51200000  *  152.20900000  * -47.25700000  *
   743       C         59.61600000  *  152.18500000  * -48.03100000  *
   744       O         59.70500000  *  151.74500000  * -49.17800000  *
   745       N         59.96300000  *  151.45500000  * -46.96100000  *
   746       H         59.85800000  *  151.86500000  * -46.04600000  *
   747       C         60.28700000  *  150.01900000  * -47.01800000  *
   748       H         60.58000000  *  149.79500000  * -48.04000000  *
   749       C         61.52200000  *  149.68600000  * -46.15300000  *
   750       H         61.86600000  *  148.69400000  * -46.44800000  *
   751       H         62.31600000  *  150.38900000  * -46.40900000  *
   752       C         61.33600000  *  149.67700000  * -44.62700000  *
   753       O         60.24200000  *  149.32400000  * -44.14200000  *
   754       O         62.32100000  *  149.98100000  * -43.91500000  *
   755       C         59.07500000  *  149.11100000  * -46.71800000  *
   756       O         58.03800000  *  149.55400000  * -46.20500000  *
   757       N         59.19100000  *  147.81900000  * -47.04800000  *
   758       H         60.03800000  *  147.50900000  * -47.52500000  *
   759       C         58.10100000  *  146.88000000  * -46.84100000  *
   760       H         57.21800000  *  147.32500000  * -47.29300000  *
   761       C         58.41200000  *  145.57700000  * -47.59200000  *
   762       H         58.61300000  *  145.80400000  * -48.64400000  *
   763       H         59.28800000  *  145.12100000  * -47.15800000  *
   764       C         57.28700000  *  144.52700000  * -47.51900000  *
   765       H         57.05600000  *  144.28000000  * -46.48700000  *
   766       C         56.00700000  *  145.04400000  * -48.19600000  *
   767       H         56.23500000  *  145.37800000  * -49.20200000  *
   768       H         55.26800000  *  144.24500000  * -48.23100000  *
   769       H         55.59500000  *  145.87000000  * -47.62900000  *
   770       C         57.76800000  *  143.24900000  * -48.17500000  *
   771       H         58.61500000  *  142.85400000  * -47.62000000  *
   772       H         56.97300000  *  142.50400000  * -48.17100000  *
   773       H         58.06400000  *  143.44500000  * -49.20700000  *
   774       C         57.76400000  *  146.61300000  * -45.36900000  *
   775       O         56.60900000  *  146.37600000  * -45.03000000  *
   776       N         58.75700000  *  146.67700000  * -44.48800000  *
   777       H         59.64000000  *  147.08600000  * -44.79000000  *
   778       C         58.49100000  *  146.46700000  * -43.07300000  *
   779       H         57.97900000  *  145.55100000  * -42.87200000  *
   780       C         59.78200000  *  146.47800000  * -42.25400000  *
   781       H         60.44800000  *  145.70000000  * -42.62000000  *
   782       H         60.28600000  *  147.44000000  * -42.35600000  *
   783       C         59.49200000  *  146.22900000  * -40.76500000  *
   784       H         58.94200000  *  147.08300000  * -40.37400000  *
   785       H         58.87100000  *  145.33200000  * -40.67600000  *
   786       C         60.74500000  *  146.03800000  * -39.93500000  *
   787       H         61.36100000  *  145.25900000  * -40.37900000  *
   788       H         61.30800000  *  146.97100000  * -39.90700000  *
   789       C         60.37600000  *  145.60700000  * -38.51700000  *
   790       H         59.98500000  *  144.58900000  * -38.53700000  *
   791       H         61.27900000  *  145.61300000  * -37.90300000  *
   792       N         59.34600000  *  146.53100000  * -37.94700000  *
   793       H         58.44600000  *  146.48100000  * -38.44300000  *
   794       H         59.09000000  *  146.27800000  * -37.00400000  *
   795       H         59.61300000  *  147.50600000  * -37.97800000  *
   796       C         57.55800000  *  147.53800000  * -42.51200000  *
   797       O         56.61300000  *  147.23400000  * -41.78300000  *
   798       N         57.83400000  *  148.81100000  * -42.80400000  *
   799       H         58.66200000  *  149.00500000  * -43.37100000  *
   800       C         57.01100000  *  149.93100000  * -42.33800000  *
   801       H         56.90800000  *  149.86700000  * -41.25300000  *
   802       C         57.72200000  *  151.24600000  * -42.68100000  *
   803       H         58.73200000  *  151.20900000  * -42.27100000  *
   804       H         57.79400000  *  151.34700000  * -43.76400000  *
   805       C         56.99900000  *  152.46700000  * -42.09500000  *
   806       H         56.02400000  *  152.58100000  * -42.57000000  *
   807       H         56.85500000  *  152.32600000  * -41.02200000  *
   808       C         57.83800000  *  153.72900000  * -42.32500000  *
   809       H         58.78000000  *  153.62200000  * -41.78500000  *
   810       H         58.04900000  *  153.83300000  * -43.39100000  *
   811       C         57.10700000  *  154.97900000  * -41.82700000  *
   812       H         56.17200000  *  155.08600000  * -42.38500000  *
   813       H         56.85600000  *  154.84200000  * -40.77100000  *
   814       N         57.94800000  *  156.19000000  * -41.99700000  *
   815       H         58.17600000  *  156.34200000  * -42.96900000  *
   816       H         57.47700000  *  157.01500000  * -41.65100000  *
   817       H         58.82300000  *  156.09500000  * -41.50000000  *
   818       C         55.60500000  *  149.84000000  * -42.92600000  *
   819       O         54.62900000  *  150.08600000  * -42.22400000  *
   820       N         55.49500000  *  149.42600000  * -44.18900000  *
   821       H         56.35000000  *  149.26300000  * -44.71300000  *
   822       C         54.20500000  *  149.26000000  * -44.85200000  *
   823       H         53.62600000  *  150.17500000  * -44.72500000  *
   824       C         54.41000000  *  148.98800000  * -46.34000000  *
   825       H         54.98900000  *  149.80200000  * -46.77700000  *
   826       H         55.00200000  *  148.07700000  * -46.45200000  *
   827       C         53.12600000  *  148.85300000  * -47.10800000  *
   828       C         52.23100000  *  149.92200000  * -47.18600000  *
   829       H         52.46300000  *  150.85600000  * -46.69900000  *
   830       C         51.01500000  *  149.79500000  * -47.88400000  *
   831       H         50.32500000  *  150.62800000  * -47.91800000  *
   832       C         50.69700000  *  148.60300000  * -48.50200000  *
   833       H         49.75200000  *  148.50200000  * -49.02000000  *
   834       C         51.58700000  *  147.52100000  * -48.43200000  *
   835       H         51.33500000  *  146.58300000  * -48.91200000  *
   836       C         52.79500000  *  147.65400000  * -47.73300000  *
   837       H         53.46700000  *  146.81000000  * -47.67200000  *
   838       C         53.37400000  *  148.12200000  * -44.22700000  *
   839       O         52.16900000  *  148.28300000  * -44.00900000  *
   840       N         54.01600000  *  146.98100000  * -43.96600000  *
   841       H         55.00900000  *  146.90600000  * -44.17900000  *
   842       C         53.33800000  *  145.83600000  * -43.34100000  *
   843       H         52.47600000  *  145.52800000  * -43.93400000  *
   844       C         54.29200000  *  144.65000000  * -43.17000000  *
   845       H         55.15800000  *  145.02700000  * -42.63600000  *
   846       H         53.80700000  *  143.89200000  * -42.54700000  *
   847       C         54.73100000  *  144.00400000  * -44.46100000  *
   848       H         53.84700000  *  143.61400000  * -44.95900000  *
   849       H         55.19200000  *  144.69400000  * -45.15000000  *
   850       S         55.79700000  *  142.58100000  * -44.15400000  *
   851       C         57.05400000  *  143.29200000  * -43.18800000  *
   852       H         56.67800000  *  143.65800000  * -42.23500000  *
   853       H         57.80700000  *  142.53400000  * -42.98200000  *
   854       H         57.44300000  *  144.07900000  * -43.80900000  *
   855       C         52.84400000  *  146.26000000  * -41.95900000  *
   856       O         51.68200000  *  146.03200000  * -41.61400000  *
   857       N         53.72600000  *  146.88400000  * -41.17900000  *
   858       H         54.70100000  *  146.95700000  * -41.45300000  *
   859       C         53.34300000  *  147.35100000  * -39.84600000  *
   860       H         53.03400000  *  146.49700000  * -39.23800000  *
   861       C         54.50500000  *  148.07700000  * -39.15700000  *
   862       H         54.94100000  *  148.81500000  * -39.83000000  *
   863       H         54.12400000  *  148.60600000  * -38.28400000  *
   864       C         55.58400000  *  147.11500000  * -38.68500000  *
   865       O         55.26200000  *  145.90900000  * -38.57600000  *
   866       O         56.73300000  *  147.55200000  * -38.41700000  *
   867       C         52.15000000  *  148.27900000  * -39.96300000  *
   868       O         51.20300000  *  148.18000000  * -39.18700000  *
   869       N         52.18300000  *  149.16200000  * -40.95500000  *
   870       H         53.01600000  *  149.23700000  * -41.51800000  *
   871       C         51.08600000  *  150.10000000  * -41.17300000  *
   872       H         50.93100000  *  150.67400000  * -40.25800000  *
   873       C         51.42800000  *  151.06800000  * -42.31500000  *
   874       H         51.45500000  *  150.53900000  * -43.26600000  *
   875       H         50.66000000  *  151.83800000  * -42.36800000  *
   876       H         52.39300000  *  151.53600000  * -42.12800000  *
   877       C         49.78900000  *  149.37000000  * -41.49900000  *
   878       O         48.71100000  *  149.83600000  * -41.15600000  *
   879       N         49.90500000  *  148.22900000  * -42.16400000  *
   880       H         50.83800000  *  147.88500000  * -42.38200000  *
   881       C         48.74000000  *  147.45400000  * -42.57500000  *
   882       H         47.85700000  *  148.08600000  * -42.62800000  *
   883       H         48.90600000  *  147.02300000  * -43.58600000  *
   884       H         48.52600000  *  146.61900000  * -41.88800000  *
   885       H         72.54500000  *  137.05800000  * -55.15200000  *
   886       C         72.38600000  *  137.90500000  * -54.47400000  *
   887       O         73.28300000  *  138.71900000  * -54.28600000  *
   888       N         71.20100000  *  138.01500000  * -53.89800000  *
   889       H         70.47300000  *  137.31400000  * -54.05700000  *
   890       C         70.96800000  *  139.10000000  * -52.94900000  *
   891       H         71.50000000  *  140.00600000  * -53.22900000  *
   892       C         69.47700000  *  139.40500000  * -52.82500000  *
   893       H         69.09300000  *  139.71900000  * -53.79200000  *
   894       H         68.93000000  *  138.50600000  * -52.53300000  *
   895       C         69.17800000  *  140.45400000  * -51.81200000  *
   896       N         69.23000000  *  140.42300000  * -50.45900000  *
   897       C         68.94700000  *  141.69100000  * -50.01400000  *
   898       H         68.96900000  *  142.01200000  * -48.98400000  *
   899       N         68.72400000  *  142.47200000  * -51.05500000  *
   900       H         68.47200000  *  143.44500000  * -51.00700000  *
   901       C         68.85400000  *  141.75000000  * -52.15500000  *
   902       H         68.77100000  *  142.12600000  * -53.16500000  *
   903       C         71.52100000  *  138.65700000  * -51.58300000  *
   904       O         72.28000000  *  139.38000000  * -50.94700000  *
   905       N         71.11400000  *  137.47100000  * -51.14500000  *
   906       H         70.37100000  *  137.01600000  * -51.66500000  *
   907       C         71.55500000  *  136.88000000  * -49.87700000  *
   908       H         71.18200000  *  135.84900000  * -49.87900000  *
   909       C         73.07600000  *  136.85300000  * -49.83700000  *
   910       H         73.53100000  *  137.83300000  * -49.86900000  *
   911       H         73.36600000  *  136.47900000  * -48.85100000  *
   912       C         73.64700000  *  135.85900000  * -50.81700000  *
   913       H         73.29800000  *  134.87100000  * -50.67200000  *
   914       H         73.21600000  *  136.10500000  * -51.78700000  *
   915       C         75.11700000  *  136.08400000  * -50.99900000  *
   916       H         75.61200000  *  135.95400000  * -50.03300000  *
   917       H         75.49500000  *  135.33200000  * -51.69500000  *
   918       N         75.35800000  *  137.42700000  * -51.50600000  *
   919       H         74.62100000  *  138.12700000  * -51.38200000  *
   920       C         76.54800000  *  137.85900000  * -51.89000000  *
   921       N         77.59300000  *  137.04400000  * -51.81500000  *
   922       H         77.44700000  *  136.21200000  * -51.26800000  *
   923       H         78.49900000  *  137.44300000  * -51.92100000  *
   924       N         76.69000000  *  139.09300000  * -52.35600000  *
   925       H         75.86000000  *  139.69200000  * -52.33800000  *
   926       H         77.56200000  *  139.47800000  * -52.67100000  *
   927       C         71.03700000  *  137.42400000  * -48.54200000  *
   928       O         71.18700000  *  136.76800000  * -47.50900000  *
   929       N         70.43700000  *  138.60400000  * -48.51600000  *
   930       H         70.32800000  *  139.16900000  * -49.34700000  *
   931       C         69.93700000  *  139.07600000  * -47.23100000  *
   932       H         69.76500000  *  138.24900000  * -46.54100000  *
   933       C         70.93500000  *  140.04200000  * -46.56200000  *
   934       H         71.90900000  *  139.56600000  * -46.50900000  *
   935       H         71.04400000  *  140.94300000  * -47.17900000  *
   936       C         70.51300000  *  140.42800000  * -45.14700000  *
   937       O         70.17200000  *  139.51500000  * -44.35500000  *
   938       O         70.51000000  *  141.64400000  * -44.82500000  *
   939       C         68.58700000  *  139.73400000  * -47.37800000  *
   940       O         68.35000000  *  140.81000000  * -46.83500000  *
   941       N         67.68700000  *  139.08300000  * -48.11000000  *
   942       H         67.94300000  *  138.20800000  * -48.54500000  *
   943       C         66.35900000  *  139.64900000  * -48.29900000  *
   944       H         66.47700000  *  140.66700000  * -48.65900000  *
   945       C         65.54600000  *  138.81300000  * -49.28800000  *
   946       H         65.58300000  *  137.78400000  * -48.94500000  *
   947       H         64.50600000  *  139.14000000  * -49.25500000  *
   948       C         66.02700000  *  138.85500000  * -50.73600000  *
   949       H         67.06400000  *  138.52800000  * -50.78200000  *
   950       C         65.17300000  *  137.91700000  * -51.58300000  *
   951       H         64.15900000  *  138.30500000  * -51.68800000  *
   952       H         65.63400000  *  137.80700000  * -52.55000000  *
   953       H         65.13400000  *  136.93500000  * -51.11000000  *
   954       C         65.92100000  *  140.27700000  * -51.26400000  *
   955       H         66.42000000  *  140.99600000  * -50.63300000  *
   956       H         66.44200000  *  140.27500000  * -52.20900000  *
   957       H         64.88200000  *  140.56100000  * -51.39700000  *
   958       C         65.59400000  *  139.73400000  * -46.98200000  *
   959       O         65.58600000  *  138.79200000  * -46.16600000  *
   960       N         64.95600000  *  140.85600000  * -46.74400000  *
   961       H         64.96400000  *  141.58600000  * -47.44400000  *
   962       C         64.17500000  *  141.06800000  * -45.54100000  *
   963       H         63.56800000  *  140.17600000  * -45.38900000  *
   964       C         65.06300000  *  141.24700000  * -44.28900000  *
   965       H         64.43200000  *  141.32200000  * -43.40200000  *
   966       H         65.66100000  *  140.34400000  * -44.16500000  *
   967       C         66.00200000  *  142.46100000  * -44.31500000  *
   968       H         66.42100000  *  142.57900000  * -45.31100000  *
   969       H         65.44500000  *  143.36000000  * -44.05100000  *
   970       C         67.15100000  *  142.23200000  * -43.32500000  *
   971       H         66.74700000  *  141.99500000  * -42.33800000  *
   972       H         67.73200000  *  141.37800000  * -43.68000000  *
   973       C         68.05900000  *  143.46200000  * -43.21600000  *
   974       H         68.15400000  *  143.92500000  * -44.20300000  *
   975       H         67.58300000  *  144.19000000  * -42.54900000  *
   976       N         69.40200000  *  143.07700000  * -42.70600000  *
   977       H         69.88200000  *  142.47500000  * -43.38900000  *
   978       H         69.97300000  *  143.89300000  * -42.52700000  *
   979       H         69.32100000  *  142.56600000  * -41.83600000  *
   980       C         63.26700000  *  142.23000000  * -45.83600000  *
   981       O         63.62300000  *  143.07200000  * -46.66000000  *
   982       N         62.11200000  *  142.30300000  * -45.18600000  *
   983       C         61.62600000  *  141.34600000  * -44.17100000  *
   984       H         62.10000000  *  141.53200000  * -43.20900000  *
   985       H         61.74500000  *  140.31100000  * -44.47600000  *
   986       C         60.16400000  *  141.66900000  * -44.09500000  *
   987       H         59.73700000  *  141.34900000  * -43.14300000  *
   988       H         59.63700000  *  141.20600000  * -44.93200000  *
   989       C         60.16000000  *  143.18900000  * -44.24800000  *
   990       H         60.51600000  *  143.64900000  * -43.32100000  *
   991       H         59.20200000  *  143.56500000  * -44.57400000  *
   992       C         61.14500000  *  143.38000000  * -45.40300000  *
   993       H         60.63400000  *  143.20500000  * -46.34500000  *
   994       C         61.77100000  *  144.77100000  * -45.44800000  *
   995       O         61.39200000  *  145.58400000  * -46.27300000  *
   996       N         62.73200000  *  145.09000000  * -44.56200000  *
   997       H         62.97700000  *  144.40200000  * -43.86500000  *
   998       C         63.45000000  *  146.38800000  * -44.54100000  *
   999       H         62.71800000  *  147.19400000  * -44.46300000  *
  1000       C         64.39000000  *  146.46500000  * -43.32400000  *
  1001       H         65.07800000  *  145.62000000  * -43.35200000  *
  1002       H         64.98300000  *  147.37800000  * -43.40500000  *
  1003       C         63.67600000  *  146.50000000  * -41.96700000  *
  1004       H         62.98000000  *  147.34000000  * -41.95700000  *
  1005       H         63.11400000  *  145.57900000  * -41.82600000  *
  1006       C         64.66500000  *  146.64100000  * -40.80800000  *
  1007       O         65.68200000  *  145.96300000  * -40.73700000  *
  1008       N         64.41100000  *  147.50800000  * -39.85200000  *
  1009       H         65.07400000  *  147.59000000  * -39.09500000  *
  1010       H         63.60400000  *  148.11100000  * -39.89700000  *
  1011       C         64.30300000  *  146.67100000  * -45.79700000  *
  1012       O         64.54600000  *  147.82500000  * -46.14400000  *
  1013       N         64.76400000  *  145.62000000  * -46.48000000  *
  1014       H         64.44800000  *  144.70400000  * -46.19400000  *
  1015       C         65.53900000  *  145.68200000  * -47.72000000  *
  1016       H         66.10300000  *  146.61600000  * -47.75400000  *
  1017       C         66.55000000  *  144.50400000  * -47.75100000  *
  1018       H         66.05300000  *  143.58400000  * -47.45600000  *
  1019       H         66.89900000  *  144.35900000  * -48.77100000  *
  1020       C         67.79900000  *  144.70600000  * -46.90300000  *
  1021       O         68.12200000  *  145.79700000  * -46.45900000  *
  1022       N         68.55800000  *  143.66200000  * -46.64500000  *
  1023       H         69.44400000  *  143.81400000  * -46.19000000  *
  1024       H         68.29900000  *  142.71000000  * -46.89000000  *
  1025       C         64.63300000  *  145.70000000  * -48.96900000  *
  1026       O         65.15400000  *  145.61400000  * -50.07900000  *
  1027       N         63.30000000  *  145.80300000  * -48.83400000  *
  1028       H         62.89500000  *  145.87300000  * -47.90900000  *
  1029       C         62.40600000  *  145.84500000  * -49.97900000  *
  1030       H         62.94700000  *  145.74800000  * -50.91900000  *
  1031       C         61.36900000  *  144.72100000  * -49.88900000  *
  1032       H         60.76900000  *  144.86100000  * -48.99200000  *
  1033       H         60.74400000  *  144.79800000  * -50.77200000  *
  1034       C         62.03600000  *  143.32400000  * -49.85900000  *
  1035       H         62.67100000  *  143.24000000  * -48.98800000  *
  1036       C         61.00200000  *  142.26000000  * -49.77100000  *
  1037       H         60.24600000  *  142.42800000  * -50.53400000  *
  1038       H         61.44700000  *  141.27100000  * -49.89000000  *
  1039       H         60.52000000  *  142.31900000  * -48.79800000  *
  1040       C         62.89500000  *  143.12600000  * -51.08400000  *
  1041       H         63.82900000  *  143.66800000  * -50.95600000  *
  1042       H         63.12900000  *  142.06900000  * -51.20900000  *
  1043       H         62.39300000  *  143.49200000  * -51.96600000  *
  1044       C         61.76300000  *  147.21800000  * -49.95200000  *
  1045       O         61.15000000  *  147.60200000  * -48.96600000  *
  1046       N         61.88800000  *  147.98300000  * -51.03000000  *
  1047       H         62.37800000  *  147.61100000  * -51.83800000  *
  1048       C         61.44300000  *  149.37600000  * -51.06300000  *
  1049       H         61.06000000  *  149.67900000  * -50.09000000  *
  1050       C         62.61400000  *  150.28900000  * -51.40400000  *
  1051       H         62.94100000  *  150.07300000  * -52.42300000  *
  1052       H         62.25400000  *  151.31500000  * -51.36100000  *
  1053       C         63.81500000  *  150.14000000  * -50.46500000  *
  1054       H         64.24200000  *  149.14400000  * -50.56600000  *
  1055       C         64.84200000  *  151.16700000  * -50.89300000  *
  1056       H         64.47800000  *  152.15800000  * -50.63600000  *
  1057       H         65.78200000  *  150.95900000  * -50.39100000  *
  1058       H         64.99900000  *  151.13700000  * -51.96400000  *
  1059       C         63.48600000  *  150.39100000  * -48.99600000  *
  1060       H         62.86300000  *  149.58300000  * -48.62400000  *
  1061       H         64.40200000  *  150.40800000  * -48.40800000  *
  1062       H         62.95900000  *  151.33900000  * -48.88200000  *
  1063       C         60.32100000  *  149.56100000  * -52.06400000  *
  1064       O         60.41800000  *  149.10300000  * -53.19100000  *
  1065       N         59.26800000  *  150.25600000  * -51.67700000  *
  1066       H         59.36500000  *  150.76300000  * -50.80000000  *
  1067       C         58.08300000  *  150.44700000  * -52.50800000  *
  1068       H         58.17300000  *  149.92400000  * -53.45700000  *
  1069       C         56.81900000  *  149.90600000  * -51.78600000  *
  1070       H         55.94300000  *  150.08700000  * -52.41500000  *
  1071       C         56.95000000  *  148.40400000  * -51.54300000  *
  1072       H         57.75300000  *  148.18300000  * -50.83300000  *
  1073       H         56.01300000  *  148.00400000  * -51.15200000  *
  1074       H         57.15800000  *  147.91500000  * -52.48900000  *
  1075       C         56.64700000  *  150.60600000  * -50.43300000  *
  1076       H         57.48200000  *  150.38000000  * -49.77500000  *
  1077       H         56.60500000  *  151.68300000  * -50.57600000  *
  1078       C         55.37000000  *  150.22200000  * -49.68600000  *
  1079       H         55.48900000  *  149.24800000  * -49.22200000  *
  1080       H         55.17000000  *  150.96500000  * -48.91000000  *
  1081       H         54.52900000  *  150.16800000  * -50.38500000  *
  1082       C         57.87200000  *  151.93000000  * -52.81700000  *
  1083       O         58.38200000  *  152.79400000  * -52.10000000  *
  1084       N         57.14900000  *  152.22000000  * -53.89700000  *
  1085       H         56.70500000  *  151.48200000  * -54.43300000  *
  1086       C         56.84100000  *  153.60200000  * -54.22700000  *
  1087       H         57.16800000  *  154.27800000  * -53.43100000  *
  1088       C         57.50400000  *  154.05300000  * -55.54100000  *
  1089       H         57.21800000  *  155.07000000  * -55.80500000  *
  1090       H         58.58200000  *  154.04400000  * -55.38800000  *
  1091       C         57.19300000  *  153.14600000  * -56.70100000  *
  1092       O         56.13500000  *  152.53500000  * -56.76400000  *
  1093       N         58.11500000  *  153.07200000  * -57.64100000  *
  1094       H         57.83300000  *  152.61700000  * -58.48600000  *
  1095       H         58.88600000  *  153.71500000  * -57.62100000  *
  1096       C         55.33100000  *  153.75800000  * -54.32100000  *
  1097       O         54.57600000  *  152.79900000  * -54.11400000  *
  1098       N         54.88500000  *  154.97100000  * -54.62100000  *
  1099       H         55.52100000  *  155.73600000  * -54.79200000  *
  1100       C         53.46400000  *  155.24700000  * -54.72300000  *
  1101       H         52.92700000  *  154.82600000  * -53.87200000  *
  1102       C         53.20900000  *  156.78000000  * -54.75500000  *
  1103       H         52.16900000  *  156.98000000  * -55.02600000  *
  1104       C         53.47800000  *  157.39700000  * -53.41000000  *
  1105       H         54.52100000  *  157.25500000  * -53.13000000  *
[...]
 1005  H   0.83088
 1006  C   1.06515   0.79518   0.73685   0.79792
 1007  O   1.87782   1.40648   1.58102   1.82766
 1008  N   1.52696   1.35265   1.40772   1.31228
 1009  H   0.65565
 1010  H   0.66520
 1011  C   1.08445   0.75814   0.78058   0.81389
 1012  O   1.88506   1.65618   1.31421   1.73407
 1013  N   1.55234   1.50793   1.20362   1.30158
 1014  H   0.66516
 1015  C   1.07241   0.94741   1.09425   0.82052
 1016  H   0.80401
 1017  C   1.07048   1.04607   1.08955   1.16747
 1018  H   0.83060
 1019  H   0.79643
 1020  C   1.05910   0.80889   0.76605   0.75149
 1021  O   1.87654   1.77504   1.39646   1.62583
 1022  N   1.53181   1.30244   1.19405   1.59477
 1023  H   0.66466
 1024  H   0.65355
 1025  C   1.08786   0.78522   0.71978   0.85314
 1026  O   1.87878   1.76733   1.60963   1.37969
 1027  N   1.54122   1.12598   1.66571   1.18320
 1028  H   0.65380
 1029  C   1.06990   0.96892   0.97941   0.97492
 1030  H   0.81099
 1031  C   1.06733   1.06446   0.99791   1.17272
 1032  H   0.83732
 1033  H   0.84827
 1034  C   1.04101   1.01191   0.94613   1.06227
 1035  H   0.85566
 1036  C   1.04919   1.12587   1.11848   1.17076
 1037  H   0.84496
 1038  H   0.84886
 1039  H   0.86565
 1040  C   1.05153   1.14155   1.17185   1.09906
 1041  H   0.84458
 1042  H   0.85750
 1043  H   0.84995
 1044  C   1.07671   0.74933   0.84287   0.75503
 1045  O   1.87192   1.53770   1.79724   1.44663
 1046  N   1.54607   1.55730   1.17140   1.24672
 1047  H   0.64536
 1048  C   1.06476   0.98892   0.82617   1.09976
 1049  H   0.81400
 1050  C   1.06468   1.02275   1.10588   1.12665
 1051  H   0.84601
 1052  H   0.84079
 1053  C   1.04781   0.96767   1.07256   0.96827
 1054  H   0.86516
 1055  C   1.05371   1.12547   1.13046   1.16517
 1056  H   0.84640
 1057  H   0.84849
 1058  H   0.85956
 1059  C   1.05482   1.17606   1.17650   1.04644
 1060  H   0.84056
 1061  H   0.85181
 1062  H   0.84779
 1063  C   1.07551   0.79821   0.74387   0.81774
 1064  O   1.86935   1.83066   1.62635   1.34040
 1065  N   1.54136   1.19147   1.46932   1.29564
 1066  H   0.64445
 1067  C   1.07603   0.88926   1.00603   1.04178
 1068  H   0.80961
 1069  C   1.06431   1.01521   0.99297   1.01976
 1070  H   0.85006
 1071  C   1.05460   1.18111   1.03399   1.17647
 1072  H   0.84344
 1073  H   0.84511
 1074  H   0.85324
 1075  C   1.05399   1.06959   1.12039   1.03126
 1076  H   0.84594
 1077  H   0.86095
 1078  C   1.05245   1.08935   1.15729   1.13188
 1079  H   0.84844
 1080  H   0.87774
 1081  H   0.84694
 1082  C   1.08660   0.74250   0.88870   0.74259
 1083  O   1.88695   1.56773   1.57644   1.55604
 1084  N   1.54300   1.50800   1.14346   1.33818
 1085  H   0.64286
 1086  C   1.06232   0.97278   0.88524   1.03650
 1087  H   0.80600
 1088  C   1.07277   1.18104   1.12944   1.02512
 1089  H   0.80835
 1090  H   0.80488
 1091  C   1.06055   0.76198   0.77080   0.82301
 1092  O   1.88014   1.35520   1.56889   1.83531
 1093  N   1.53404   1.29743   1.49477   1.27205
 1094  H   0.67147
 1095  H   0.66527
 1096  C   1.08282   0.88479   0.75984   0.71389
 1097  O   1.88787   1.65343   1.46771   1.58709
 1098  N   1.54018   1.14560   1.19740   1.67289
 1099  H   0.66356
 1100  C   1.08563   0.83664   1.05819   1.08319
 1101  H   0.80351
 1102  C   1.08432   0.99159   0.86682   0.88976
 1103  H   0.84670
 1104  C   1.05379   1.18339   1.18057   1.05428
 1105  H   0.84186
 1106  H   0.82384
 1107  H   0.82928
 1108  O   1.84868   1.59286   1.82318   1.34580
 1109  H   0.64187
 1110  C   1.07318   0.78898   0.75560   0.82388
 1111  O   1.87788   1.27973   1.68891   1.84864
 1112  N   1.53327   1.19327   1.53458   1.21096
 1113  H   0.66725
 1114  C   1.05710   1.15377   1.13340   0.89300
 1115  H   0.83540
 1116  H   0.83769
 1117  H   0.83545
 1118  H   0.83969
 1119  C   1.10506   0.75502   0.73537   0.91348
 1120  O   1.88316   1.71075   1.59648   1.48266
 1121  N   1.54488   1.42816   1.34577   1.20822
 1122  H   0.65353
 1123  C   1.08075   0.93104   1.08446   0.93144
 1124  H   0.80955
 1125  C   1.07312   1.07908   0.95375   0.98253
 1126  H   0.84399
 1127  C   1.05810   1.18709   1.08395   1.12922
 1128  H   0.84355
 1129  H   0.84844
 1130  H   0.85214
 1131  C   1.05414   1.07580   1.13449   1.01860
 1132  H   0.85362
 1133  H   0.85481
 1134  C   1.04916   1.14385   1.15101   1.09052
 1135  H   0.84988
 1136  H   0.85970
 1137  H   0.84947
 1138  C   1.07220   0.84174   0.73674   0.77769
 1139  O   1.87774   1.89040   1.52083   1.39067
 1140  N   1.54473   1.10297   1.52644   1.33544
 1141  H   0.63246
 1142  C   1.06989   0.84597   1.05354   1.03786
 1143  H   0.81806
 1144  C   1.06007   1.09252   1.04628   1.09629
 1145  H   0.83611
 1146  H   0.84659
 1147  C   1.05104   1.08564   1.04439   1.07783
 1148  H   0.85014
 1149  H   0.84464
 1150  C   1.05930   1.08196   1.05471   1.09809
 1151  H   0.84157
 1152  H   0.83238
 1153  C   1.07884   1.02182   0.99737   1.07410
 1154  H   0.81169
 1155  H   0.83342
 1156  N   1.45925   1.23084   1.22922   1.25653
 1157  H   0.69435
 1158  H   0.70047
 1159  H   0.68647
 1160  C   1.07827   0.77987   0.75050   0.82541
 1161  O   1.88112   1.77264   1.69295   1.29071
 1162  N   1.54478   1.32888   1.42532   1.23087
 1163  H   0.64043
 1164  C   1.07022   0.91853   0.95765   1.02905
 1165  H   0.83192
 1166  C   1.06273   1.10011   1.01937   1.13294
 1167  H   0.83526
 1168  H   0.84469
 1169  C   1.05370   1.07065   0.96115   0.96350
 1170  H   0.85972
 1171  C   1.06222   1.16609   1.13935   1.09232
 1172  H   0.85186
 1173  H   0.84930
 1174  H   0.85276
 1175  C   1.05740   1.18267   1.13691   1.08878
 1176  H   0.85341
 1177  H   0.84840
 1178  H   0.85420
 1179  C   1.08512   0.79133   0.79850   0.75840
 1180  O   1.88082   1.63441   1.59877   1.53848
 1181  N   1.54414   1.36736   1.43916   1.15952
 1182  H   0.64663
 1183  C   1.06766   0.91370   0.92744   1.04848
 1184  H   0.82741
 1185  C   1.05981   1.16388   1.08635   1.15458
 1186  H   0.82208
 1187  H   0.83369
 1188  H   0.82724
 1189  C   1.08832   0.78583   0.78447   0.74731
 1190  O   1.87169   1.83861   1.36183   1.60018
 1191  N   1.54654   1.17288   1.31758   1.49954
 1192  H   0.67263
 1193  C   1.07530   0.87873   1.07917   0.93339
 1194  H   0.81514
 1195  C   1.07952   1.14556   1.17604   1.01644
 1196  H   0.81004
 1197  H   0.83193
 1198  C   1.07062   0.73928   0.73372   0.69063
 1199  O   1.88698   1.78661   1.43275   1.62763
 1200  O   1.87172   1.69959   1.51148   1.78596
 1201  C   1.09012   0.81723   0.79461   0.74996
 1202  O   1.88710   1.28830   1.80028   1.57139
 1203  N   1.56655   1.29371   1.16861   1.54142
 1204  H   0.68026
 1205  C   1.07970   1.02157   0.91774   0.95284
 1206  H   0.83924
 1207  C   1.05565   1.07699   1.20236   0.96322
 1208  H   0.81415
 1209  H   0.81986
 1210  C   1.07481   0.97428   0.97725   0.97001
 1211  C   1.09002   1.04114   1.04136   1.01425
 1212  H   0.83959
 1213  C   1.08860   0.98556   1.06174   1.01086
 1214  H   0.84246
 1215  C   1.08746   1.05965   0.99169   1.03227
 1216  H   0.84791
 1217  C   1.08946   1.03712   1.03625   0.98906
 1218  H   0.83164
 1219  C   1.08730   0.98647   1.06406   1.02363
 1220  H   0.83872
 1221  C   1.08885   0.80269   0.77361   0.76391
 1222  O   1.88523   1.44438   1.56012   1.71457
 1223  N   1.53942   1.41512   1.43690   1.13576
 1224  H   0.68272
 1225  C   1.06844   0.98712   1.06759   0.98200
 1226  H   0.81283
 1227  H   0.80705
 1228  C   1.07960   0.82866   0.77874   0.70559
 1229  O   1.87670   1.84146   1.32611   1.61377
 1230  N   1.55758   1.29754   1.23344   1.44582
 1231  H   0.67249
 1232  C   1.07743   0.89807   1.03270   0.96770
 1233  H   0.83428
 1234  C   1.06794   1.11251   0.95059   1.17546
 1235  H   0.83712
 1236  H   0.83060
 1237  C   1.05166   1.03248   0.96070   1.00886
 1238  H   0.86303
 1239  C   1.05601   1.16784   1.06732   1.16506
 1240  H   0.85824
 1241  H   0.84365
 1242  H   0.85518
 1243  C   1.05562   1.17067   1.18827   1.04764
 1244  H   0.84213
 1245  H   0.84174
 1246  H   0.85857
 1247  C   1.09539   0.85760   0.76519   0.72437
 1248  O   1.88110   1.32571   1.78593   1.59468
 1249  N   1.58225   1.28184   1.23397   1.52141
 1250  H   0.66037
 1251  C   1.06827   0.96390   0.99700   0.95498
 1252  H   0.83639
 1253  C   1.05862   1.13995   1.09748   1.17423
 1254  H   0.84409
 1255  H   0.81074
 1256  H   0.81034
 1257  C   1.07599   0.83440   0.75182   0.78129
 1258  O   1.88389   1.50012   1.59982   1.64961
 1259  N   1.54297   1.31118   1.51241   1.14420
 1260  H   0.67595
 1261  C   1.06247   0.92447   1.14576   1.10583
 1262  H   0.82654
 1263  H   0.82975
 1264  H   0.83908
 1265  H   0.84164
 1266  C   1.10463   0.72495   0.79423   0.87716
 1267  O   1.88383   1.53323   1.36210   1.88325
 1268  N   1.54272   1.48724   1.35111   1.14837
 1269  H   0.67716
 1270  C   1.07286   1.11774   0.96751   0.82221
 1271  H   0.80344
 1272  C   1.05775   1.09074   1.02695   1.14962
 1273  H   0.83586
 1274  H   0.82219
 1275  C   1.06415   0.97708   0.94927   0.96764
 1276  C   1.08267   1.01980   0.99352   1.05794
 1277  H   0.84051
 1278  C   1.08210   1.04752   1.02800   0.99898
 1279  H   0.84583
 1280  C   1.08113   1.00736   1.05579   1.02586
 1281  H   0.85039
 1282  C   1.08046   1.02499   1.00382   1.05550
 1283  H   0.85468
 1284  C   1.08318   1.05795   1.02538   0.99522
 1285  H   0.83977
 1286  C   1.08050   0.76605   0.78603   0.79867
 1287  O   1.88386   1.53924   1.68039   1.53373
 1288  N   1.53670   1.17654   1.34785   1.43198
 1289  H   0.67174
 1290  C   1.05818   1.14200   0.97717   0.99762
 1291  H   0.81383
 1292  H   0.78717
 1293  C   1.07323   0.78241   0.75092   0.80191
 1294  O   1.87209   1.55515   1.39846   1.84138
 1295  N   1.53485   1.40662   1.37199   1.17608
 1296  H   0.64845
 1297  C   1.07480   1.00348   1.20094   0.87824
 1298  H   0.80892
 1299  H   0.79358
 1300  C   1.08126   0.77437   0.74559   0.80724
 1301  O   1.88285   1.52206   1.53303   1.73147
 1302  N   1.56529   1.44478   1.16721   1.26717
 1303  C   1.07057   1.06966   0.86702   1.05587
 1304  H   0.83598
 1305  H   0.83875
 1306  C   1.05732   1.04576   1.13998   1.05929
 1307  H   0.84672
 1308  H   0.80368
 1309  C   1.06104   1.08287   0.98338   1.17200
 1310  H   0.83529
 1311  H   0.81977
 1312  C   1.07347   1.05212   1.00101   0.86759
 1313  H   0.81340
 1314  C   1.08831   0.76332   0.76822   0.82864
 1315  O   1.88392   1.42713   1.43571   1.88335
 1316  N   1.54314   1.40355   1.48386   1.11753
 1317  H   0.64355
 1318  C   1.08217   1.04958   1.11403   0.89136
 1319  H   0.80100
 1320  H   0.78757
 1321  C   1.08828   0.82550   0.73029   0.77832
 1322  O   1.88491   1.70326   1.72965   1.32954
 1323  N   1.55105   1.23214   1.41126   1.34485
 1324  H   0.68799
 1325  C   1.07565   0.86040   1.06406   0.97839
 1326  H   0.82192
 1327  C   1.05960   1.16883   1.07557   0.97657
 1328  H   0.83480
 1329  H   0.83913
 1330  C   1.05817   1.13853   1.07481   1.02363
 1331  H   0.82460
 1332  H   0.87163
 1333  C   1.06374   1.08741   1.09994   0.78147
 1334  H   0.85045
 1335  H   0.81927
 1336  N   1.53280   1.62699   1.28990   1.09335
 1337  H   0.64876
 1338  C   0.97599   0.83626   0.80289   0.79451
 1339  N   1.50145   1.56337   1.25851   1.24812
 1340  H   0.67465
 1341  H   0.62641
 1342  N   1.50406   1.55700   1.35351   1.14120
 1343  H   0.64457
 1344  H   0.63728
 1345  C   1.08274   0.75723   0.77364   0.84411
 1346  O   1.88770   1.48015   1.64667   1.56764
 1347  N   1.54257   1.54564   1.19724   1.23923
 1348  H   0.67294
 1349  C   1.08973   1.00046   1.01003   0.92110
 1350  H   0.80197
 1351  C   1.08631   0.93212   0.92723   0.87820
 1352  H   0.85091
 1353  C   1.05851   1.09750   1.12816   1.20552
 1354  H   0.82396
 1355  H   0.83338
 1356  H   0.83116
 1357  O   1.84303   1.58276   1.64061   1.56906
 1358  H   0.62636
 1359  C   1.07904   0.81350   0.79157   0.76296
 1360  O   1.88745   1.53708   1.79110   1.36948
 1361  N   1.55257   1.32717   1.29592   1.37689
 1362  H   0.65275
 1363  C   1.07399   0.98857   0.92706   0.99333
 1364  H   0.81724
 1365  C   1.05785   1.09555   1.06857   1.08745
 1366  H   0.84110
 1367  H   0.82659
 1368  C   1.06138   0.97210   0.97503   1.05845
 1369  C   1.08282   0.97262   1.07900   0.99007
 1370  H   0.84438
 1371  C   1.08069   1.07824   0.99551   1.02207
 1372  H   0.81333
 1373  C   1.06642   0.82760   0.89546   0.91119
 1374  O   1.84138   1.46796   1.53959   1.69584
 1375  H   0.63576
 1376  C   1.07392   0.99038   1.09222   1.06976
 1377  H   0.84719
 1378  C   1.08176   1.06412   0.99877   0.99447
 1379  H   0.85875
 1380  C   1.08204   0.77641   0.73410   0.82106
 1381  O   1.88477   1.39041   1.55599   1.82923
 1382  N   1.55035   1.20052   1.60176   1.14816
 1383  H   0.66115
 1384  C   1.08715   1.11704   1.03437   0.83748
 1385  H   0.82125
 1386  C   1.08253   0.83215   0.89106   1.00023
 1387  H   0.86868
 1388  C   1.05718   1.09866   1.14104   1.18950
 1389  H   0.83087
 1390  H   0.84595
 1391  H   0.84149
 1392  O   1.84698   1.32401   1.76641   1.66692
 1393  H   0.61638
 1394  C   1.08202   0.82836   0.76395   0.79211
 1395  O   1.88736   1.29189   1.70647   1.67689
 1396  N   1.54290   1.22797   1.27105   1.47582
 1397  H   0.64940
 1398  C   1.07065   0.98408   1.04036   1.07614
 1399  H   0.84401
 1400  H   0.80892
 1401  C   1.07025   0.85083   0.72025   0.75164
 1402  O   1.88501   1.70082   1.45739   1.55927
 1403  N   1.55349   1.14753   1.51379   1.33244
 1404  H   0.68015
 1405  C   1.07072   0.82925   0.98756   1.12927
 1406  H   0.81412
 1407  C   1.05313   1.16389   0.98893   1.05131
 1408  H   0.84017
 1409  H   0.83538
 1410  C   1.05983   1.20562   1.01215   1.13863
 1411  H   0.84335
 1412  H   0.82614
 1413  C   1.06661   0.72250   0.72030   0.72879
 1414  O   1.88756   1.47021   1.82248   1.63752
 1415  O   1.88488   1.51974   1.58643   1.81511
 1416  C   1.08677   0.77107   0.86260   0.75453
 1417  O   1.88731   1.64853   1.65317   1.40984
 1418  N   1.54578   1.31027   1.19192   1.47837
 1419  H   0.65301
 1420  C   1.07216   1.06268   0.88125   1.00772
 1421  H   0.84391
 1422  C   1.05448   1.01863   1.03218   0.97077
 1423  H   0.83591
 1424  C   1.05592   1.17742   1.04886   1.19323
 1425  H   0.84559
 1426  H   0.83590
 1427  H   0.83786
 1428  C   1.05459   1.18127   1.16766   1.06161
 1429  H   0.84064
 1430  H   0.83992
 1431  H   0.85218
 1432  C   1.07556   0.77103   0.73155   0.84201
 1433  O   1.88366   1.36349   1.63752   1.76936
 1434  N   1.53828   1.27321   1.47291   1.21105
 1435  H   0.66903
 1436  C   1.07705   1.00709   1.05454   0.86796
 1437  H   0.82276
 1438  C   1.06062   1.02689   1.01611   0.97684
 1439  H   0.84070
 1440  C   1.05418   1.18411   1.09806   1.12136
 1441  H   0.84107
 1442  H   0.84087
 1443  H   0.85077
 1444  C   1.05737   1.18958   1.16657   1.05253
 1445  H   0.84631
 1446  H   0.83569
 1447  H   0.83880
 1448  C   1.08138   0.80662   0.78618   0.75108
 1449  O   1.88312   1.81176   1.47379   1.46066
 1450  N   1.53598   1.23676   1.43122   1.31648
 1451  H   0.66427
 1452  C   1.07959   0.90438   0.96824   1.14820
 1453  H   0.80537
 1454  C   1.07971   0.93494   0.82440   0.98331
 1455  H   0.86617
 1456  C   1.05746   1.09521   1.13591   1.19616
 1457  H   0.82506
 1458  H   0.82218
 1459  H   0.84137
 1460  O   1.84756   1.47777   1.49385   1.78186
 1461  H   0.64869
 1462  C   1.07071   0.75394   0.82648   0.79808
 1463  O   1.88059   1.50681   1.88255   1.36394
 1464  N   1.53715   1.55050   1.12174   1.29443
 1465  H   0.65724
 1466  C   1.05406   1.16768   0.87319   1.13557
 1467  H   0.83023
 1468  H   0.83725
 1469  H   0.85141
 1470  H   0.82729
 1471  C   1.10847   0.72192   0.77569   0.90300
 1472  O   1.87917   1.50033   1.39726   1.89102
 1473  N   1.54804   1.50779   1.35864   1.13678
 1474  H   0.67045
 1475  C   1.07821   1.08305   1.04079   0.80196
 1476  H   0.80377
 1477  C   1.05903   1.13424   0.99958   1.10166
 1478  H   0.81853
 1479  H   0.82223
 1480  C   1.06604   0.97578   0.99273   1.00504
 1481  C   1.08225   0.99083   1.02508   1.00492
 1482  H   0.83767
 1483  C   1.07637   1.10504   1.04972   1.06614
 1484  H   0.82055
 1485  C   1.07251   0.88663   0.88223   0.88006
 1486  O   1.83868   1.35497   1.61296   1.73278
 1487  H   0.61921
 1488  C   1.07857   0.98843   1.09955   1.09652
 1489  H   0.82118
 1490  C   1.08812   1.07873   0.97898   0.96927
 1491  H   0.83479
 1492  C   1.08086   0.79993   0.76893   0.79198
 1493  O   1.88631   1.81387   1.69947   1.28041
 1494  N   1.53472   1.25587   1.50892   1.18459
 1495  H   0.67089
 1496  C   1.06143   0.92034   1.08957   1.16675
 1497  H   0.83438
 1498  H   0.82974
 1499  H   0.83861
 1500  H   0.82497
 1501  C   1.10799   0.78631   0.88383   0.71627
 1502  O   1.88013   1.43036   1.87070   1.50912
 1503  N   1.55064   1.37513   1.18535   1.44525
 1504  H   0.64431
 1505  C   1.07866   0.96562   0.86315   1.12892
 1506  H   0.81506
 1507  C   1.05975   0.97992   0.99665   1.07644
 1508  H   0.84636
 1509  C   1.05206   1.15829   1.06263   1.17601
 1510  H   0.84459
 1511  H   0.84458
 1512  H   0.84172
 1513  C   1.04780   0.99989   1.12969   1.08501
 1514  H   0.86673
 1515  H   0.85351
 1516  C   1.04899   1.11608   1.12961   1.14939
 1517  H   0.85869
 1518  H   0.85735
 1519  H   0.84119
 1520  C   1.07241   0.85968   0.73791   0.75019
 1521  O   1.87626   1.57619   1.55611   1.67374
 1522  N   1.54215   1.18491   1.41748   1.37457
 1523  H   0.66205
 1524  C   1.07134   0.87899   1.16323   1.10823
 1525  H   0.84321
 1526  H   0.83231
 1527  H   0.83427
 1528  H   0.82782
 1529  C   1.10750   0.84817   0.73319   0.82091
 1530  O   1.88533   1.81644   1.62626   1.36668
 1531  N   1.53778   1.25346   1.40309   1.30534
 1532  H   0.64788
 1533  C   1.05915   0.89145   1.04077   1.02431
 1534  H   0.81933
 1535  C   1.06065   1.03220   1.11496   1.11444
 1536  H   0.82490
 1537  H   0.84746
 1538  C   1.04444   0.99011   0.96293   1.06025
 1539  H   0.87951
 1540  C   1.05448   1.16250   1.06824   1.18044
 1541  H   0.83875
 1542  H   0.84794
 1543  H   0.85385
 1544  C   1.05255   1.12380   1.17250   1.10841
 1545  H   0.85783
 1546  H   0.84704
 1547  H   0.84145
 1548  C   1.07853   0.72931   0.86456   0.77477
 1549  O   1.88182   1.57634   1.45155   1.73533
 1550  N   1.54007   1.57256   1.21284   1.19377
 1551  H   0.66075
 1552  C   1.07182   1.02011   0.93474   0.96124
 1553  H   0.81180
 1554  C   1.05667   1.17046   1.07921   0.99209
 1555  H   0.82438
 1556  H   0.82667
 1557  C   1.05682   1.12999   1.08795   1.03625
 1558  H   0.85319
 1559  H   0.82419
 1560  C   1.06364   1.15815   0.94490   0.90198
 1561  H   0.81635
 1562  H   0.83547
 1563  N   1.52416   1.16150   1.42469   1.39813
 1564  H   0.63975
 1565  C   0.99139   0.79128   0.81233   0.81835
 1566  N   1.51721   1.11639   1.46814   1.48670
 1567  H   0.65575
 1568  H   0.63931
 1569  N   1.50866   1.25120   1.39989   1.41136
 1570  H   0.64204
 1571  H   0.64047
 1572  C   1.08191   0.87225   0.77195   0.74556
 1573  O   1.88765   1.60734   1.59871   1.52685
 1574  N   1.53973   1.17435   1.27171   1.51616
 1575  H   0.65727
 1576  C   1.07435   0.85702   1.08583   1.03851
 1577  H   0.82170
 1578  C   1.06137   1.16428   1.09804   0.98386
 1579  H   0.84188
 1580  H   0.83867
 1581  C   1.04763   1.08142   0.96022   0.94832
 1582  H   0.86900
 1583  C   1.05587   1.17137   1.16277   1.07764
 1584  H   0.85495
 1585  H   0.86127
 1586  H   0.84673
 1587  C   1.05680   1.15787   1.09240   1.15823
 1588  H   0.85002
 1589  H   0.86088
 1590  H   0.84666
 1591  C   1.08301   0.71444   0.76181   0.70268
 1592  O   1.88393   1.46799   1.86988   1.62409
 1593  O   1.88764   1.54696   1.59384   1.80280

 **********************
 *                    *
 * JOB ENDED NORMALLY *
 *                    *
 **********************



 TOTAL JOB TIME:            42.61 SECONDS

 == MOPAC DONE ==
