 *******************************************************************************
 **                                                                           **
 **                              MOPAC v23.2.2                                **
 **                                                                           **
 *******************************************************************************
 **          Digital Object Identifier (DOI): 10.5281/zenodo.6511958          **
 **    Visit the DOI location for information on how to cite this program.    **
 *******************************************************************************

                              PM7 CALCULATION RESULTS

 *******************************************************************************
 *  CALCULATION DONE: (MAX THREADS = 12)             Tue Jan 27 16:00:29 2026  *
 *  PM7        - The PM7 Hamiltonian to be used
 *  MOZYME     - USE LOCALIZED M.O.s IN SOLVING THE SCF EQUATIONS
 *
 *
 *
 *                 CHARGE ON SYSTEM = +2
 *
 *
 *
 *  EPS=78.4   - USE ANDREAS KLAMT'S COSMO IMPLICIT SOLVATION MODEL
 *  1SCF       - DO 1 SCF AND THEN STOP 
 *  T=         - A TIME OF 172800.0 SECONDS REQUESTED
 *  DUMP=N     - RESTART FILE WRITTEN EVERY 7200.0 SECONDS REQUESTED
 *******************************************************************************
PM7 1SCF MOZYME CHARGE=2 EPS=78.4


   ATOM   CHEMICAL          X               Y               Z
  NUMBER   SYMBOL      (ANGSTROMS)     (ANGSTROMS)     (ANGSTROMS)

     1       H         71.69100000  *  165.23700000  * -45.36000000  *
     2       C         70.72700000  *  165.64400000  * -45.02500000  *
     3       O         70.67100000  *  166.69300000  * -44.40000000  *
     4       N         69.64800000  *  164.94600000  * -45.35400000  *
     5       H         69.74300000  *  164.08600000  * -45.86500000  *
     6       C         68.31800000  *  165.37700000  * -44.95100000  *
     7       H         68.30400000  *  166.44500000  * -44.75000000  *
     8       C         67.27900000  *  165.08100000  * -46.05800000  *
     9       H         67.27200000  *  164.02200000  * -46.29800000  *
    10       C         65.89200000  *  165.46600000  * -45.59200000  *
    11       H         65.46400000  *  166.22900000  * -46.24500000  *
    12       H         65.23700000  *  164.60600000  * -45.62700000  *
    13       H         65.87600000  *  165.89500000  * -44.58400000  *
    14       C         67.63700000  *  165.85600000  * -47.31700000  *
    15       H         68.59400000  *  165.52900000  * -47.70800000  *
    16       H         66.87900000  *  165.66900000  * -48.07700000  *
    17       H         67.68800000  *  166.92100000  * -47.10100000  *
    18       C         67.91500000  *  164.66400000  * -43.65700000  *
    19       O         67.55300000  *  165.30600000  * -42.67600000  *
    20       N         67.98400000  *  163.33800000  * -43.65800000  *
    21       H         68.28400000  *  162.85200000  * -44.48600000  *
    22       C         67.62300000  *  162.54400000  * -42.48700000  *
    23       H         67.90600000  *  163.07600000  * -41.58100000  *
    24       C         66.12800000  *  162.23500000  * -42.45900000  *
    25       H         65.92600000  *  161.47400000  * -43.20900000  *
    26       H         65.88500000  *  161.80700000  * -41.48800000  *
    27       C         65.21300000  *  163.39800000  * -42.74000000  *
    28       H         65.33100000  *  164.15700000  * -41.96400000  *
    29       H         65.45900000  *  163.81400000  * -43.69700000  *
    30       C         63.76600000  *  162.97200000  * -42.82400000  *
    31       O         63.44700000  *  162.11400000  * -43.67900000  *
    32       O         62.94800000  *  163.49400000  * -42.03400000  *
    33       C         68.34700000  *  161.22200000  * -42.57700000  *
    34       O         68.73000000  *  160.78800000  * -43.66100000  *
    35       N         68.52400000  *  160.57500000  * -41.43500000  *
    36       H         68.03000000  *  160.89100000  * -40.60600000  *
    37       C         69.17300000  *  159.28200000  * -41.42100000  *
    38       H         69.95100000  *  159.22100000  * -42.17800000  *
    39       C         69.75600000  *  159.01000000  * -40.03200000  *
    40       H         70.21900000  *  159.94300000  * -39.71800000  *
    41       H         68.96300000  *  158.79100000  * -39.31600000  *
    42       C         70.79800000  *  157.89600000  * -39.98300000  *
    43       H         70.31100000  *  156.94100000  * -40.17400000  *
    44       H         71.53800000  *  158.07300000  * -40.76900000  *
    45       C         71.50100000  *  157.83200000  * -38.61800000  *
    46       H         70.74900000  *  157.59000000  * -37.86000000  *
    47       H         72.23100000  *  157.01800000  * -38.63800000  *
    48       C         72.18600000  *  159.16200000  * -38.26900000  *
    49       H         72.83200000  *  159.42500000  * -39.10900000  *
    50       H         71.41200000  *  159.93100000  * -38.15600000  *
    51       N         73.00000000  *  159.10500000  * -37.02500000  *
    52       H         73.70000000  *  158.37000000  * -37.07400000  *
    53       H         73.43800000  *  159.98800000  * -36.79300000  *
    54       H         72.39100000  *  158.85400000  * -36.25100000  *
    55       C         68.06200000  *  158.28700000  * -41.74800000  *
    56       O         67.16300000  *  158.08100000  * -40.94600000  *
    57       N         68.05200000  *  157.71000000  * -42.95400000  *
    58       H         68.86100000  *  157.84800000  * -43.54000000  *
    59       C         67.02800000  *  156.73400000  * -43.39200000  *
    60       H         66.05700000  *  157.23300000  * -43.40100000  *
    61       C         67.31400000  *  156.21900000  * -44.82500000  *
    62       H         68.38900000  *  156.09700000  * -44.94400000  *
    63       C         66.65000000  *  154.86600000  * -45.12900000  *
    64       H         65.57600000  *  154.92900000  * -44.95100000  *
    65       H         66.82300000  *  154.59600000  * -46.16300000  *
    66       H         67.07700000  *  154.06900000  * -44.52100000  *
    67       C         66.82000000  *  157.26300000  * -45.83900000  *
    68       H         65.72800000  *  157.27100000  * -45.85500000  *
    69       H         67.15100000  *  158.23400000  * -45.48900000  *
    70       C         67.34200000  *  157.05800000  * -47.26900000  *
    71       H         66.91700000  *  156.16000000  * -47.71200000  *
    72       H         67.05600000  *  157.90800000  * -47.88500000  *
    73       H         68.42700000  *  156.97800000  * -47.26500000  *
    74       C         66.90100000  *  155.57300000  * -42.40500000  *
    75       O         65.79700000  *  155.22700000  * -41.98100000  *
    76       N         68.03200000  *  154.95400000  * -42.07200000  *
    77       H         68.91200000  *  155.30200000  * -42.43600000  *
    78       C         68.04900000  *  153.70500000  * -41.32900000  *
    79       H         67.42800000  *  153.80800000  * -40.43800000  *
    80       H         67.63500000  *  152.91000000  * -41.95000000  *
    81       C         69.45000000  *  153.29400000  * -40.90700000  *
    82       O         70.45100000  *  153.60300000  * -41.55900000  *
    83       N         69.49900000  *  152.56600000  * -39.80100000  *
    84       H         68.62900000  *  152.34800000  * -39.33400000  *
    85       C         70.70900000  *  151.94100000  * -39.28900000  *
    86       H         71.55100000  *  152.60500000  * -39.48000000  *
    87       C         70.56600000  *  151.76200000  * -37.76900000  *
    88       H         69.70000000  *  151.13600000  * -37.55400000  *
    89       H         71.46200000  *  151.27600000  * -37.40300000  *
    90       C         70.43700000  *  153.10700000  * -37.03100000  *
    91       H         71.31000000  *  153.71800000  * -37.27400000  *
    92       H         69.55100000  *  153.63700000  * -37.38700000  *
    93       C         70.32600000  *  152.93600000  * -35.50700000  *
    94       O         69.45400000  *  152.17300000  * -35.03200000  *
    95       O         71.08400000  *  153.60600000  * -34.76700000  *
    96       C         70.94200000  *  150.62600000  * -40.05800000  *
    97       O         70.19400000  *  149.65900000  * -39.89700000  *
    98       N         71.88700000  *  150.64200000  * -41.00500000  *
    99       H         72.51300000  *  151.43600000  * -41.05500000  *
   100       C         71.95000000  *  149.68000000  * -42.11200000  *
   101       H         70.93500000  *  149.42800000  * -42.42300000  *
   102       H         72.43500000  *  150.17200000  * -42.95500000  *
   103       C         72.69900000  *  148.37000000  * -41.83500000  *
   104       O         73.12100000  *  148.06700000  * -40.72000000  *
   105       N         72.88900000  *  147.58500000  * -42.89800000  *
   106       H         72.48000000  *  147.86200000  * -43.78100000  *
   107       C         73.64000000  *  146.31200000  * -42.89800000  *
   108       H         73.33300000  *  145.72000000  * -42.03500000  *
   109       C         73.33200000  *  145.50100000  * -44.16700000  *
   110       H         74.06600000  *  144.70300000  * -44.28400000  *
   111       C         71.94600000  *  144.87500000  * -44.07300000  *
   112       H         71.18000000  *  145.65100000  * -44.03200000  *
   113       H         71.77900000  *  144.23700000  * -44.94000000  *
   114       H         71.90600000  *  144.25600000  * -43.17900000  *
   115       O         73.37500000  *  146.34600000  * -45.29200000  *
   116       H         73.01000000  *  145.83500000  * -46.05100000  *
   117       C         75.15400000  *  146.47700000  * -42.79600000  *
   118       O         75.78500000  *  145.69300000  * -42.09600000  *
   119       N         75.72700000  *  147.48700000  * -43.46300000  *
   120       H         75.11700000  *  148.02100000  * -44.06100000  *
   121       C         77.18300000  *  147.69900000  * -43.59600000  *
   122       H         77.70300000  *  147.09200000  * -42.85400000  *
   123       C         77.63500000  *  147.22600000  * -44.99100000  *
   124       H         77.21500000  *  147.89400000  * -45.74300000  *
   125       H         78.72200000  *  147.30300000  * -45.05700000  *
   126       C         77.26200000  *  145.79600000  * -45.32900000  *
   127       C         77.69600000  *  144.75400000  * -44.49000000  *
   128       H         78.28800000  *  144.97100000  * -43.61000000  *
   129       C         77.35100000  *  143.42600000  * -44.78600000  *
   130       H         77.67300000  *  142.63500000  * -44.13000000  *
   131       C         76.59400000  *  143.12800000  * -45.93700000  *
   132       O         76.34300000  *  141.83200000  * -46.25400000  *
   133       H         77.00900000  *  141.26900000  * -45.82900000  *
   134       C         76.13900000  *  144.17300000  * -46.76700000  *
   135       H         75.53300000  *  143.95200000  * -47.63100000  *
   136       C         76.47800000  *  145.50500000  * -46.46400000  *
   137       H         76.13600000  *  146.30400000  * -47.10600000  *
   138       C         77.63400000  *  149.15000000  * -43.34500000  *
   139       O         78.74000000  *  149.53700000  * -43.72200000  *
   140       N         76.77800000  *  149.96600000  * -42.72500000  *
   141       H         75.90100000  *  149.59000000  * -42.39500000  *
   142       C         77.01500000  *  151.38700000  * -42.47400000  *
   143       H         77.60900000  *  151.50700000  * -41.57000000  *
   144       H         77.57800000  *  151.80200000  * -43.30000000  *
   145       C         75.70800000  *  152.16600000  * -42.30900000  *
   146       O         74.65900000  *  151.56500000  * -42.05900000  *
   147       N         75.75500000  *  153.49500000  * -42.44900000  *
   148       H         76.58800000  *  153.89400000  * -42.85900000  *
   149       C         74.59200000  *  154.32600000  * -42.21200000  *
   150       H         73.82600000  *  153.78000000  * -41.65800000  *
   151       C         74.95900000  *  155.54800000  * -41.37000000  *
   152       H         75.70700000  *  156.13900000  * -41.89300000  *
   153       C         73.73100000  *  156.40900000  * -41.13300000  *
   154       H         72.94300000  *  155.80300000  * -40.68200000  *
   155       H         73.98600000  *  157.21200000  * -40.45000000  *
   156       H         73.36800000  *  156.84900000  * -42.06500000  *
   157       C         75.54500000  *  155.09600000  * -40.05300000  *
   158       H         76.46000000  *  154.52800000  * -40.19800000  *
   159       H         75.77700000  *  155.95300000  * -39.42300000  *
   160       H         74.80500000  *  154.48400000  * -39.53200000  *
   161       C         74.01900000  *  154.79200000  * -43.53700000  *
   162       O         74.76100000  *  155.18400000  * -44.43700000  *
   163       N         72.69800000  *  154.64800000  * -43.67500000  *
   164       H         72.17100000  *  154.30000000  * -42.88100000  *
   165       C         71.91300000  *  155.09400000  * -44.83200000  *
   166       H         72.56900000  *  155.14900000  * -45.69900000  *
   167       C         70.75900000  *  154.11800000  * -45.16000000  *
   168       H         69.92000000  *  154.31600000  * -44.49500000  *
   169       C         70.29300000  *  154.33800000  * -46.60500000  *
   170       H         71.09300000  *  154.09000000  * -47.30200000  *
   171       H         69.43000000  *  153.70500000  * -46.81400000  *
   172       H         70.00600000  *  155.37700000  * -46.75600000  *
   173       C         71.11900000  *  152.63700000  * -44.98700000  *
   174       H         71.30200000  *  152.41600000  * -43.93600000  *
   175       H         70.28200000  *  152.01900000  * -45.31400000  *
   176       H         72.00400000  *  152.38900000  * -45.56700000  *
   177       C         71.34900000  *  156.48400000  * -44.54100000  *
   178       O         70.61800000  *  156.63700000  * -43.55900000  *
   179       N         71.62500000  *  157.49000000  * -45.37400000  *
   180       H         72.23900000  *  157.32200000  * -46.16900000  *
   181       C         71.01800000  *  158.79600000  * -45.21900000  *
   182       H         70.37900000  *  158.84300000  * -44.33800000  *
   183       C         72.10000000  *  159.86100000  * -45.06900000  *
   184       H         72.79900000  *  159.78100000  * -45.90500000  *
   185       H         71.63400000  *  160.84400000  * -45.14300000  *
   186       C         72.87100000  *  159.84300000  * -43.76800000  *
   187       C         72.34700000  *  160.43100000  * -42.61900000  *
   188       H         71.37700000  *  160.90600000  * -42.66800000  *
   189       C         73.06400000  *  160.45200000  * -41.42500000  *
   190       H         72.63300000  *  160.94600000  * -40.56800000  *
   191       C         74.33000000  *  159.87400000  * -41.37100000  *
   192       O         75.04700000  *  159.90100000  * -40.18700000  *
   193       H         74.69700000  *  160.54100000  * -39.56800000  *
   194       C         74.87500000  *  159.27800000  * -42.50300000  *
   195       H         75.78500000  *  158.71900000  * -42.41900000  *
   196       C         74.14000000  *  159.26700000  * -43.69600000  *
   197       H         74.51800000  *  158.73300000  * -44.56500000  *
   198       C         70.16700000  *  159.17400000  * -46.42900000  *
   199       O         70.41800000  *  158.72400000  * -47.55600000  *
   200       N         69.03200000  *  159.83700000  * -46.21300000  *
   201       H         68.84500000  *  160.14400000  * -45.26500000  *
   202       C         68.29400000  *  160.51200000  * -47.28100000  *
   203       H         68.28600000  *  159.91000000  * -48.19200000  *
   204       C         66.85000000  *  160.83500000  * -46.84700000  *
   205       H         66.33500000  *  159.91500000  * -46.58500000  *
   206       H         66.86600000  *  161.47700000  * -45.96400000  *
   207       C         66.03900000  *  161.51700000  * -47.96000000  *
   208       H         66.51000000  *  162.46100000  * -48.23800000  *
   209       H         66.01500000  *  160.86500000  * -48.83400000  *
   210       C         64.60200000  *  161.79200000  * -47.48700000  *
   211       H         64.14900000  *  160.85900000  * -47.14700000  *
   212       H         64.63100000  *  162.49200000  * -46.65100000  *
   213       C         63.75900000  *  162.37900000  * -48.62700000  *
   214       H         64.27300000  *  163.25900000  * -49.02700000  *
   215       H         63.69200000  *  161.63300000  * -49.42600000  *
   216       N         62.39600000  *  162.75900000  * -48.16700000  *
   217       H         62.43400000  *  163.47100000  * -47.45100000  *
   218       H         61.84400000  *  163.13300000  * -48.92700000  *
   219       H         61.89700000  *  161.96800000  * -47.78600000  *
   220       C         69.09900000  *  161.76800000  * -47.51000000  *
   221       O         69.32800000  *  162.50300000  * -46.55300000  *
   222       N         69.55500000  *  162.00600000  * -48.72500000  *
   223       H         69.34400000  *  161.34200000  * -49.46700000  *
   224       C         70.34900000  *  163.18200000  * -49.01700000  *
   225       H         70.22500000  *  163.93500000  * -48.24000000  *
   226       C         71.81400000  *  162.79200000  * -49.07000000  *
   227       H         71.97800000  *  162.06700000  * -49.86400000  *
   228       H         72.42900000  *  163.67700000  * -49.23900000  *
   229       H         72.10500000  *  162.33200000  * -48.12600000  *
   230       C         69.94400000  *  163.83800000  * -50.32200000  *
   231       O         69.22100000  *  163.25100000  * -51.12800000  *
   232       N         70.40700000  *  165.06400000  * -50.52400000  *
   233       H         70.93200000  *  165.53000000  * -49.79600000  *
   234       C         70.10800000  *  165.77900000  * -51.74600000  *
   235       H         69.54100000  *  165.15900000  * -52.44400000  *
   236       H         69.52200000  *  166.69100000  * -51.53000000  *
   237       H         71.05900000  *  166.04700000  * -52.23900000  *
   238       H         68.08600000  *  164.80700000  * -56.55000000  *
   239       C         68.21200000  *  164.39600000  * -55.53600000  *
   240       O         69.28600000  *  164.50800000  * -54.94200000  *
   241       N         67.13500000  *  163.82300000  * -55.01100000  *
   242       H         66.34000000  *  163.66800000  * -55.61500000  *
   243       C         67.13600000  *  163.21200000  * -53.68800000  *
   244       H         67.86300000  *  163.70700000  * -53.05000000  *
   245       C         65.75500000  *  163.32300000  * -53.02900000  *
   246       H         64.97700000  *  163.06900000  * -53.75000000  *
   247       C         65.64800000  *  162.36600000  * -51.85200000  *
   248       H         66.47200000  *  162.51800000  * -51.15200000  *
   249       H         64.69700000  *  162.53800000  * -51.34700000  *
   250       H         65.65200000  *  161.33900000  * -52.20000000  *
   251       C         65.54000000  *  164.75000000  * -52.56600000  *
   252       H         65.62600000  *  165.42400000  * -53.41600000  *
   253       H         64.53500000  *  164.85100000  * -52.15900000  *
   254       H         66.28400000  *  165.00300000  * -51.81000000  *
   255       C         67.52600000  *  161.76000000  * -53.84700000  *
   256       O         66.97900000  *  161.02800000  * -54.68200000  *
   257       N         68.49600000  *  161.34900000  * -53.04800000  *
   258       H         68.91100000  *  161.99700000  * -52.39100000  *
   259       C         69.01100000  *  159.99200000  * -53.10200000  *
   260       H         68.34600000  *  159.34100000  * -53.67900000  *
   261       C         70.37400000  *  159.97400000  * -53.81600000  *
   262       H         70.77500000  *  158.96500000  * -53.87500000  *
   263       C         70.21400000  *  160.50700000  * -55.21300000  *
   264       H         69.95700000  *  161.56600000  * -55.19000000  *
   265       H         71.15100000  *  160.39100000  * -55.75600000  *
   266       H         69.44200000  *  159.95000000  * -55.73600000  *
   267       C         71.37900000  *  160.85000000  * -53.05700000  *
   268       H         71.56500000  *  160.44500000  * -52.06400000  *
   269       H         72.31500000  *  160.84900000  * -53.61300000  *
   270       H         71.03600000  *  161.88400000  * -52.98400000  *
   271       C         69.19200000  *  159.37200000  * -51.72900000  *
   272       O         69.02000000  *  160.03600000  * -50.68600000  *
   273       N         69.38400000  *  158.05900000  * -51.70300000  *
   274       H         69.46300000  *  157.56500000  * -52.58800000  *
   275       C         69.76100000  *  157.32500000  * -50.51100000  *
   276       H         69.48100000  *  157.88800000  * -49.62300000  *
   277       C         69.00700000  *  156.00500000  * -50.47600000  *
   278       H         69.24800000  *  155.43000000  * -51.36700000  *
   279       H         69.29100000  *  155.43700000  * -49.58800000  *
   280       H         67.93700000  *  156.20600000  * -50.44500000  *
   281       C         71.27700000  *  157.14100000  * -50.53700000  *
   282       O         71.81100000  *  156.46000000  * -51.41900000  *
   283       N         71.97000000  *  157.79100000  * -49.60300000  *
   284       H         71.44500000  *  158.28300000  * -48.88900000  *
   285       C         73.41300000  *  157.73400000  * -49.53500000  *
   286       H         73.80300000  *  157.43200000  * -50.50200000  *
   287       C         73.96100000  *  159.11400000  * -49.18200000  *
   288       H         73.49200000  *  159.84000000  * -49.85100000  *
   289       H         73.62800000  *  159.35800000  * -48.16900000  *
   290       C         75.47300000  *  159.31600000  * -49.26600000  *
   291       H         75.96900000  *  158.63700000  * -48.57100000  *
   292       C         75.94900000  *  159.02000000  * -50.68400000  *
   293       H         75.44100000  *  159.71800000  * -51.34800000  *
   294       H         77.02400000  *  159.18800000  * -50.76300000  *
   295       H         75.74700000  *  157.98700000  * -50.96800000  *
   296       C         75.80400000  *  160.74000000  * -48.87900000  *
   297       H         75.43700000  *  160.94600000  * -47.87600000  *
   298       H         76.88200000  *  160.87900000  * -48.92200000  *
   299       H         75.32000000  *  161.42900000  * -49.57600000  *
   300       C         73.82100000  *  156.71600000  * -48.48500000  *
   301       O         73.39600000  *  156.78100000  * -47.33400000  *
   302       N         74.66900000  *  155.77100000  * -48.87800000  *
   303       H         74.91900000  *  155.74900000  * -49.86400000  *
   304       C         75.12300000  *  154.65200000  * -48.04800000  *
   305       H         74.60500000  *  154.66500000  * -47.08700000  *
   306       C         74.76500000  *  153.35600000  * -48.80700000  *
   307       H         74.09700000  *  153.59500000  * -49.63900000  *
   308       H         75.66100000  *  152.91800000  * -49.24100000  *
   309       C         74.04900000  *  152.28900000  * -47.97800000  *
   310       H         73.26200000  *  152.75300000  * -47.38700000  *
   311       H         73.57600000  *  151.61000000  * -48.68700000  *
   312       C         75.01200000  *  151.50400000  * -47.07100000  *
   313       H         75.94400000  *  151.32500000  * -47.60400000  *
   314       H         75.24100000  *  152.11100000  * -46.19100000  *
   315       C         74.43100000  *  150.15100000  * -46.62400000  *
   316       H         75.12300000  *  149.70200000  * -45.90500000  *
   317       H         73.49000000  *  150.34300000  * -46.09700000  *
   318       N         74.21000000  *  149.22200000  * -47.77400000  *
   319       H         75.07500000  *  148.94700000  * -48.22500000  *
   320       H         73.71500000  *  148.35800000  * -47.51300000  *
   321       H         73.61100000  *  149.64000000  * -48.47500000  *
   322       C         76.62200000  *  154.81500000  * -47.78800000  *
   323       O         77.41400000  *  154.59700000  * -48.69700000  *
   324       N         77.01700000  *  155.22600000  * -46.58100000  *
   325       H         76.29800000  *  155.26800000  * -45.86500000  *
   326       C         78.42200000  *  155.28900000  * -46.15900000  *
   327       H         79.06600000  *  155.59300000  * -46.98900000  *
   328       C         78.56700000  *  156.26000000  * -44.97900000  *
   329       H         78.02700000  *  155.87500000  * -44.10900000  *
   330       H         79.62500000  *  156.33900000  * -44.73000000  *
   331       C         78.01500000  *  157.64300000  * -45.34000000  *
   332       H         78.45100000  *  157.95800000  * -46.27300000  *
   333       H         76.93600000  *  157.57500000  * -45.50000000  *
   334       C         78.25100000  *  158.72500000  * -44.27900000  *
   335       H         77.97800000  *  159.68000000  * -44.73200000  *
   336       H         77.56000000  *  158.53300000  * -43.46900000  *
   337       C         79.67700000  *  158.85000000  * -43.70900000  *
   338       H         80.38400000  *  158.36300000  * -44.39700000  *
   339       H         79.95000000  *  159.91100000  * -43.68600000  *
   340       N         79.78800000  *  158.26900000  * -42.33500000  *
   341       H         79.63700000  *  157.26100000  * -42.37000000  *
   342       H         80.69600000  *  158.42600000  * -41.93200000  *
   343       H         79.10400000  *  158.64600000  * -41.70100000  *
   344       C         78.82300000  *  153.89100000  * -45.72900000  *
   345       O         78.09100000  *  153.31500000  * -44.93700000  *
   346       N         79.90700000  *  153.32000000  * -46.24700000  *
   347       H         80.40500000  *  153.76400000  * -47.01000000  *
   348       C         80.34300000  *  152.02200000  * -45.76800000  *
   349       H         79.49500000  *  151.49800000  * -45.35900000  *
   350       C         80.94400000  *  151.18600000  * -46.89500000  *
   351       H         81.78600000  *  151.78200000  * -47.16900000  *
   352       C         81.42400000  *  149.85200000  * -46.34500000  *
   353       H         80.65600000  *  149.35200000  * -45.75200000  *
   354       H         81.67900000  *  149.19900000  * -47.17900000  *
   355       H         82.34500000  *  149.95700000  * -45.76100000  *
   356       C         79.89700000  *  150.97600000  * -47.99700000  *
   357       H         79.60200000  *  151.87000000  * -48.50000000  *
   358       H         80.28300000  *  150.30500000  * -48.75000000  *
   359       C         78.59100000  *  150.36100000  * -47.52600000  *
   360       H         78.17700000  *  150.90100000  * -46.69000000  *
   361       H         77.89400000  *  150.33700000  * -48.36300000  *
   362       H         78.77100000  *  149.33300000  * -47.20900000  *
   363       C         81.33300000  *  152.07100000  * -44.61400000  *
   364       O         82.16700000  *  152.98000000  * -44.51900000  *
   365       N         81.21100000  *  151.07100000  * -43.74300000  *
   366       H         80.50300000  *  150.36100000  * -43.92800000  *
   367       C         82.04400000  *  150.90200000  * -42.55200000  *
   368       H         81.47500000  *  151.18100000  * -41.66300000  *
   369       H         82.35800000  *  149.86100000  * -42.45900000  *
   370       H         82.94700000  *  151.51400000  * -42.62000000  *
   371       H         81.25700000  *  144.04600000  * -57.89900000  *
   372       C         80.50000000  *  144.84100000  * -57.88800000  *
   373       O         79.71500000  *  144.99000000  * -58.82400000  *
   374       N         80.49900000  *  145.60300000  * -56.79700000  *
   375       H         81.28000000  *  145.52500000  * -56.16600000  *
   376       C         79.57000000  *  146.70600000  * -56.61200000  *
   377       H         78.57500000  *  146.34400000  * -56.42300000  *
   378       C         80.00500000  *  147.61000000  * -55.44200000  *
   379       H         80.89800000  *  148.18000000  * -55.68500000  *
   380       C         78.90600000  *  148.60800000  * -55.12500000  *
   381       H         77.92000000  *  148.14100000  * -55.17600000  *
   382       H         79.04500000  *  148.98700000  * -54.11600000  *
   383       H         78.93800000  *  149.43600000  * -55.83300000  *
   384       C         80.32100000  *  146.76200000  * -54.20900000  *
   385       H         81.19200000  *  146.13400000  * -54.40600000  *
   386       H         80.59400000  *  147.42200000  * -53.38900000  *
   387       C         79.18400000  *  145.87900000  * -53.76500000  *
   388       H         78.77800000  *  145.31100000  * -54.59400000  *
   389       H         79.50900000  *  145.12200000  * -53.06500000  *
   390       H         78.38800000  *  146.48300000  * -53.33500000  *
   391       C         79.54300000  *  147.54500000  * -57.87900000  *
   392       O         78.48200000  *  147.77900000  * -58.45100000  *
   393       N         80.72300000  *  147.98900000  * -58.30900000  *
   394       H         81.55800000  *  147.70100000  * -57.81200000  *
   395       C         80.85900000  *  148.80400000  * -59.51100000  *
   396       H         80.33900000  *  149.74600000  * -59.38600000  *
   397       H         81.92800000  *  148.98500000  * -59.72900000  *
   398       H         80.37800000  *  148.32200000  * -60.38100000  *
   399       H         78.96400000  *  146.08700000  * -61.65600000  *
   400       C         77.87300000  *  146.08700000  * -61.51600000  *
   401       O         77.11500000  *  145.89500000  * -62.46400000  *
   402       N         77.44600000  *  146.31800000  * -60.28000000  *
   403       H         78.13400000  *  146.42500000  * -59.54900000  *
   404       C         76.02800000  *  146.35200000  * -59.94500000  *
   405       H         75.53300000  *  145.47600000  * -60.35900000  *
   406       C         75.84100000  *  146.37400000  * -58.43100000  *
   407       H         76.20500000  *  147.30400000  * -58.01800000  *
   408       H         74.76300000  *  146.35700000  * -58.24200000  *
   409       C         76.47200000  *  145.22200000  * -57.65900000  *
   410       H         77.55000000  *  145.23900000  * -57.74900000  *
   411       C         76.08000000  *  145.34100000  * -56.19200000  *
   412       H         74.99900000  *  145.23000000  * -56.07700000  *
   413       H         76.57300000  *  144.55300000  * -55.62900000  *
   414       H         76.38500000  *  146.30900000  * -55.80100000  *
   415       C         75.99600000  *  143.89000000  * -58.23600000  *
   416       H         76.41500000  *  143.73000000  * -59.22900000  *
   417       H         76.32800000  *  143.07800000  * -57.59100000  *
   418       H         74.90500000  *  143.87400000  * -58.30500000  *
   419       C         75.32200000  *  147.55900000  * -60.54800000  *
   420       O         74.09500000  *  147.56800000  * -60.66200000  *
   421       N         76.08400000  *  148.63100000  * -60.82900000  *
   422       H         77.08200000  *  148.53500000  * -60.67700000  *
   423       C         75.60100000  *  149.83300000  * -61.53400000  *
   424       H         74.83700000  *  150.33500000  * -60.94100000  *
   425       H         76.43800000  *  150.53300000  * -61.75900000  *
   426       H         75.13800000  *  149.54900000  * -62.49200000  *
   427       H         62.79000000  *  145.77200000  * -59.27600000  *
   428       C         63.71000000  *  145.72000000  * -58.67500000  *
   429       O         63.77900000  *  145.02200000  * -57.66400000  *
   430       N         64.72400000  *  146.45200000  * -59.11400000  *
   431       H         64.63800000  *  147.05100000  * -59.92700000  *
   432       C         65.97100000  *  146.53500000  * -58.38100000  *
   433       H         65.88400000  *  146.09200000  * -57.38600000  *
   434       C         67.11600000  *  145.87700000  * -59.11400000  *
   435       H         67.33600000  *  146.42600000  * -60.03000000  *
   436       C         68.35100000  *  145.87800000  * -58.21400000  *
   437       H         68.14700000  *  145.31400000  * -57.31800000  *
   438       H         69.21000000  *  145.44500000  * -58.72400000  *
   439       H         68.64100000  *  146.89000000  * -57.94500000  *
   440       C         66.72800000  *  144.44400000  * -59.47800000  *
   441       H         66.54900000  *  143.87300000  * -58.56400000  *
   442       H         65.81500000  *  144.42400000  * -60.06800000  *
   443       C         67.77400000  *  143.72700000  * -60.29600000  *
   444       H         68.68300000  *  143.57700000  * -59.72200000  *
   445       H         67.37700000  *  142.75300000  * -60.59800000  *
   446       H         68.02300000  *  144.31300000  * -61.18000000  *
   447       C         66.29500000  *  148.01000000  * -58.22000000  *
   448       O         66.21200000  *  148.78000000  * -59.18400000  *
   449       N         66.54900000  *  148.43900000  * -56.98200000  *
   450       H         66.62000000  *  147.75800000  * -56.23100000  *
   451       C         66.89000000  *  149.83500000  * -56.68600000  *
   452       H         66.07500000  *  150.48100000  * -57.01300000  *
   453       C         67.09900000  *  150.04300000  * -55.18100000  *
   454       H         67.89500000  *  149.38300000  * -54.83200000  *
   455       C         67.47900000  *  151.48600000  * -54.84100000  *
   456       H         66.65400000  *  152.16300000  * -55.06500000  *
   457       H         67.71600000  *  151.53700000  * -53.78200000  *
   458       H         68.35700000  *  151.80100000  * -55.40200000  *
   459       C         65.82000000  *  149.72500000  * -54.40500000  *
   460       H         65.54700000  *  148.68000000  * -54.51600000  *
   461       H         66.00000000  *  149.91600000  * -53.35300000  *
   462       H         65.00100000  *  150.34900000  * -54.75800000  *
   463       C         68.15000000  *  150.21100000  * -57.45900000  *
   464       O         69.17700000  *  149.53800000  * -57.34000000  *
   465       N         68.08000000  *  151.28300000  * -58.25100000  *
   466       H         67.22500000  *  151.80400000  * -58.24500000  *
   467       C         69.18900000  *  151.69800000  * -59.08000000  *
   468       H         69.52500000  *  150.81900000  * -59.63900000  *
   469       C         68.73700000  *  152.76800000  * -60.08300000  *
   470       H         67.83400000  *  152.41100000  * -60.57900000  *
   471       H         68.47700000  *  153.68100000  * -59.53700000  *
   472       C         69.79100000  *  153.06900000  * -61.13100000  *
   473       H         70.72100000  *  153.35000000  * -60.64200000  *
   474       H         69.97400000  *  152.16800000  * -61.71600000  *
   475       C         69.35100000  *  154.17900000  * -62.08100000  *
   476       H         68.50200000  *  153.81400000  * -62.66100000  *
   477       H         69.02300000  *  155.05600000  * -61.52200000  *
   478       C         70.49800000  *  154.55900000  * -63.02400000  *
   479       H         71.33900000  *  154.89000000  * -62.40800000  *
   480       H         70.81900000  *  153.66100000  * -63.56600000  *
   481       N         70.11800000  *  155.62600000  * -63.99700000  *
   482       H         69.74700000  *  156.41600000  * -63.48300000  *
   483       H         70.92600000  *  155.93300000  * -64.52500000  *
   484       H         69.41500000  *  155.27800000  * -64.63600000  *
   485       C         70.36000000  *  152.21400000  * -58.25300000  *
   486       O         70.19400000  *  153.07400000  * -57.38700000  *
   487       N         71.53700000  *  151.64500000  * -58.50700000  *
   488       H         71.59600000  *  150.90400000  * -59.18600000  *
   489       C         72.75000000  *  152.07400000  * -57.83600000  *
   490       H         72.53800000  *  152.52600000  * -56.87100000  *
   491       C         73.72700000  *  150.91100000  * -57.67000000  *
   492       H         73.31500000  *  150.22100000  * -56.93700000  *
   493       H         73.77900000  *  150.36900000  * -58.62000000  *
   494       C         75.16700000  *  151.27300000  * -57.28800000  *
   495       H         75.65500000  *  151.80300000  * -58.10000000  *
   496       C         75.18300000  *  152.16500000  * -56.05900000  *
   497       H         74.60800000  *  151.72100000  * -55.25200000  *
   498       H         76.21000000  *  152.29600000  * -55.73500000  *
   499       H         74.78900000  *  153.14000000  * -56.31200000  *
   500       C         75.93300000  *  149.99400000  * -57.01300000  *
   501       H         75.98300000  *  149.42100000  * -57.93300000  *
   502       H         76.94600000  *  150.24200000  * -56.71200000  *
   503       H         75.43500000  *  149.41000000  * -56.23200000  *
   504       C         73.31900000  *  153.11300000  * -58.79500000  *
   505       O         73.76900000  *  152.77900000  * -59.89700000  *
   506       N         73.26700000  *  154.36900000  * -58.37800000  *
   507       H         72.92600000  *  154.57000000  * -57.44900000  *
   508       C         73.73400000  *  155.46600000  * -59.19700000  *
   509       H         73.47500000  *  155.26500000  * -60.23600000  *
   510       C         73.02500000  *  156.74200000  * -58.76000000  *
   511       H         73.45000000  *  157.06300000  * -57.80900000  *
   512       H         73.23600000  *  157.53300000  * -59.48700000  *
   513       C         71.51300000  *  156.60300000  * -58.58700000  *
   514       H         71.27400000  *  155.80900000  * -57.88500000  *
   515       C         70.97400000  *  157.88000000  * -58.01900000  *
   516       H         71.37000000  *  158.74600000  * -58.56000000  *
   517       H         69.88800000  *  157.89100000  * -58.09300000  *
   518       H         71.22100000  *  157.96000000  * -56.96600000  *
   519       C         70.85100000  *  156.29000000  * -59.92300000  *
   520       H         71.28300000  *  155.39700000  * -60.34200000  *
   521       H         69.78900000  *  156.14400000  * -59.75100000  *
   522       H         71.00300000  *  157.12700000  * -60.60700000  *
   523       C         75.24500000  *  155.67800000  * -59.15800000  *
   524       O         75.83900000  *  156.04700000  * -60.17600000  *
   525       N         75.86200000  *  155.44600000  * -57.99600000  *
   526       H         75.29500000  *  155.17900000  * -57.20400000  *
   527       C         77.30800000  *  155.64700000  * -57.82900000  *
   528       H         77.80800000  *  155.40400000  * -58.76600000  *
   529       C         77.60000000  *  157.11700000  * -57.51900000  *
   530       H         76.91700000  *  157.54400000  * -56.80300000  *
   531       H         78.58200000  *  157.17000000  * -57.04800000  *
   532       C         77.65600000  *  157.97500000  * -58.75600000  *
   533       O         78.67800000  *  157.91700000  * -59.48300000  *
   534       O         76.67400000  *  158.70400000  * -59.00000000  *
   535       C         77.97900000  *  154.81700000  * -56.73400000  *
   536       O         77.37100000  *  154.52100000  * -55.70400000  *
   537       N         79.24700000  *  154.47700000  * -56.96600000  *
   538       H         79.69800000  *  154.82400000  * -57.79800000  *
   539       C         80.06100000  *  153.73800000  * -56.00300000  *
   540       H         79.55400000  *  153.69900000  * -55.05200000  *
   541       C         80.36600000  *  152.29800000  * -56.50400000  *
   542       H         79.42700000  *  151.75200000  * -56.56200000  *
   543       C         80.98100000  *  152.34300000  * -57.88400000  *
   544       H         82.06600000  *  152.43300000  * -57.82100000  *
   545       H         80.74600000  *  151.41400000  * -58.37900000  *
   546       H         80.59600000  *  153.14500000  * -58.51000000  *
   547       C         81.29900000  *  151.58800000  * -55.53900000  *
   548       H         80.81100000  *  151.54900000  * -54.57200000  *
   549       H         81.47300000  *  150.57200000  * -55.87800000  *
   550       H         82.25900000  *  152.09200000  * -55.44900000  *
   551       C         81.36500000  *  154.53600000  * -55.81000000  *
   552       O         82.27000000  *  154.48900000  * -56.64700000  *
   553       N         81.45200000  *  155.28200000  * -54.71000000  *
   554       H         80.67600000  *  155.30400000  * -54.06400000  *
   555       C         82.62100000  *  156.11100000  * -54.44300000  *
   556       H         83.20500000  *  156.21800000  * -55.35800000  *
   557       H         82.32200000  *  157.12800000  * -54.14500000  *
   558       H         83.29700000  *  155.73900000  * -53.65600000  *
   559       H         84.58000000  *  155.17100000  * -47.07300000  *
   560       C         84.22500000  *  154.98400000  * -48.09100000  *
   561       O         84.63900000  *  155.65900000  * -49.04200000  *
   562       N         83.35800000  *  153.99100000  * -48.22200000  *
   563       H         83.13600000  *  153.42800000  * -47.41700000  *
   564       C         82.77600000  *  153.65100000  * -49.50600000  *
   565       H         83.37000000  *  154.04700000  * -50.31700000  *
   566       C         82.71900000  *  152.14000000  * -49.66000000  *
   567       H         83.74000000  *  151.87500000  * -49.95700000  *
   568       H         82.64400000  *  151.54600000  * -48.78400000  *
   569       C         81.82600000  *  151.61900000  * -50.77900000  *
   570       H         80.79100000  *  151.88400000  * -50.58700000  *
   571       C         82.25800000  *  152.23100000  * -52.09200000  *
   572       H         83.31100000  *  152.49100000  * -52.08900000  *
   573       H         82.09300000  *  151.51300000  * -52.88400000  *
   574       H         81.65400000  *  153.10900000  * -52.31200000  *
   575       C         81.89900000  *  150.09400000  * -50.82200000  *
   576       H         81.91300000  *  149.66400000  * -49.82700000  *
   577       H         81.05200000  *  149.70600000  * -51.39100000  *
   578       H         82.82500000  *  149.80300000  * -51.32100000  *
   579       C         81.36700000  *  154.23200000  * -49.54800000  *
   580       O         80.51800000  *  153.85700000  * -48.74500000  *
   581       N         81.13100000  *  155.16100000  * -50.46700000  *
   582       H         81.84500000  *  155.34800000  * -51.16200000  *
   583       C         79.82200000  *  155.78100000  * -50.60800000  *
   584       H         79.27400000  *  155.67000000  * -49.68700000  *
   585       C         79.96700000  *  157.27800000  * -50.86800000  *
   586       H         80.42300000  *  157.50400000  * -51.79700000  *
   587       H         78.95400000  *  157.66400000  * -50.98900000  *
   588       C         80.57600000  *  158.04300000  * -49.72300000  *
   589       C         79.79300000  *  158.48000000  * -48.65600000  *
   590       H         78.73500000  *  158.25400000  * -48.66900000  *
   591       C         80.35600000  *  159.18600000  * -47.59400000  *
   592       H         79.75300000  *  159.56200000  * -46.79700000  *
   593       C         81.71600000  *  159.45200000  * -47.58700000  *
   594       O         82.27600000  *  160.12500000  * -46.52100000  *
   595       H         83.20600000  *  160.30800000  * -46.74500000  *
   596       C         82.51400000  *  159.02600000  * -48.63700000  *
   597       H         83.58200000  *  159.23300000  * -48.65000000  *
   598       C         81.94100000  *  158.32800000  * -49.69800000  *
   599       H         82.57400000  *  157.98100000  * -50.50200000  *
   600       C         79.04800000  *  155.15800000  * -51.76500000  *
   601       O         79.54400000  *  155.08000000  * -52.88800000  *
   602       N         77.86400000  *  154.61700000  * -51.49400000  *
   603       H         77.54100000  *  154.62800000  * -50.53200000  *
   604       C         76.98300000  *  154.05500000  * -52.51700000  *
   605       H         77.50900000  *  154.01000000  * -53.46300000  *
   606       C         76.54300000  *  152.62100000  * -52.17600000  *
   607       H         75.83500000  *  152.66000000  * -51.35700000  *
   608       H         76.01300000  *  152.22300000  * -53.04200000  *
   609       C         77.67300000  *  151.64800000  * -51.80300000  *
   610       H         78.17500000  *  151.99100000  * -50.89800000  *
   611       C         77.09900000  *  150.25700000  * -51.54000000  *
   612       H         76.61600000  *  149.87300000  * -52.44000000  *
   613       H         77.90000000  *  149.57700000  * -51.24700000  *
   614       H         76.37100000  *  150.30700000  * -50.73300000  *
   615       C         78.69500000  *  151.52900000  * -52.92700000  *
   616       H         79.21500000  *  152.47600000  * -53.05100000  *
   617       H         79.42900000  *  150.76800000  * -52.67300000  *
   618       H         78.19500000  *  151.26500000  * -53.86000000  *
   619       C         75.78700000  *  154.98600000  * -52.67200000  *
   620       O         75.10400000  *  155.25800000  * -51.68100000  *
   621       N         75.54700000  *  155.50800000  * -53.87800000  *
   622       H         76.14500000  *  155.25500000  * -54.66000000  *
   623       C         74.40900000  *  156.37500000  * -54.09400000  *
   624       H         73.97600000  *  156.70200000  * -53.15000000  *
   625       C         74.83400000  *  157.63700000  * -54.81800000  *
   626       H         75.25500000  *  157.34500000  * -55.76600000  *
   627       C         73.61400000  *  158.52200000  * -55.10900000  *
   628       H         73.11700000  *  158.76900000  * -54.17500000  *
   629       H         73.94100000  *  159.43100000  * -55.61500000  *
   630       H         72.91600000  *  158.00900000  * -55.76200000  *
   631       C         75.84000000  *  158.38200000  * -53.94900000  *
   632       H         75.28100000  *  158.78400000  * -53.13000000  *
   633       H         76.65600000  *  157.75800000  * -53.60500000  *
   634       H         76.26100000  *  159.20400000  * -54.52500000  *
   635       C         73.31400000  *  155.64400000  * -54.85300000  *
   636       O         73.49500000  *  155.22100000  * -55.99400000  *
   637       N         72.21100000  *  155.38100000  * -54.16000000  *
   638       H         72.14100000  *  155.73200000  * -53.20900000  *
   639       C         71.03400000  *  154.71500000  * -54.70600000  *
   640       H         71.28600000  *  154.25500000  * -55.65700000  *
   641       C         70.57000000  *  153.61600000  * -53.74600000  *
   642       H         70.42400000  *  154.04900000  * -52.75700000  *
   643       H         69.60000000  *  153.25800000  * -54.08600000  *
   644       C         71.50000000  *  152.42300000  * -53.62700000  *
   645       C         71.36400000  *  151.33300000  * -54.50800000  *
   646       H         70.62500000  *  151.35800000  * -55.29500000  *
   647       C         72.18100000  *  150.19700000  * -54.36300000  *
   648       H         72.06500000  *  149.35700000  * -55.03600000  *
   649       C         73.14400000  *  150.15000000  * -53.34100000  *
   650       H         73.77300000  *  149.27600000  * -53.23000000  *
   651       C         73.28600000  *  151.23900000  * -52.46400000  *
   652       H         74.01800000  *  151.19500000  * -51.67200000  *
   653       C         72.47000000  *  152.37700000  * -52.60700000  *
   654       H         72.58000000  *  153.20900000  * -51.92500000  *
   655       C         69.91100000  *  155.72700000  * -54.94400000  *
   656       O         69.77200000  *  156.69600000  * -54.19600000  *
   657       N         69.08600000  *  155.51100000  * -55.97000000  *
   658       H         69.24000000  *  154.69000000  * -56.54700000  *
   659       C         67.82300000  *  156.25300000  * -56.11300000  *
   660       H         68.06500000  *  157.30200000  * -56.28600000  *
   661       C         67.03300000  *  155.74900000  * -57.33400000  *
   662       H         66.16900000  *  156.40100000  * -57.46300000  *
   663       H         67.66100000  *  155.83000000  * -58.22200000  *
   664       C         66.54800000  *  154.29800000  * -57.19100000  *
   665       H         67.41700000  *  153.64800000  * -57.07700000  *
   666       H         65.94200000  *  154.20900000  * -56.29300000  *
   667       C         65.68900000  *  153.80400000  * -58.35700000  *
   668       O         65.17700000  *  154.61700000  * -59.16000000  *
   669       O         65.48600000  *  152.57100000  * -58.43600000  *
   670       C         66.98700000  *  156.16800000  * -54.81900000  *
   671       O         66.91900000  *  155.11100000  * -54.18700000  *
   672       N         66.36500000  *  157.26600000  * -54.38800000  *
   673       H         66.40700000  *  158.11400000  * -54.93600000  *
   674       C         65.50400000  *  157.25000000  * -53.20200000  *
   675       H         65.98000000  *  156.63700000  * -52.43400000  *
   676       C         65.37700000  *  158.66700000  * -52.63800000  *
   677       H         66.37100000  *  159.03200000  * -52.38700000  *
   678       H         64.96400000  *  159.31900000  * -53.40900000  *
   679       C         64.51400000  *  158.76200000  * -51.39400000  *
   680       C         63.20400000  *  159.27200000  * -51.47500000  *
   681       H         62.80600000  *  159.60200000  * -52.42500000  *
   682       C         62.40500000  *  159.35000000  * -50.32100000  *
   683       H         61.39800000  *  159.74000000  * -50.38800000  *
   684       C         62.91200000  *  158.91600000  * -49.08400000  *
   685       H         62.29600000  *  158.97300000  * -48.19600000  *
   686       C         64.22100000  *  158.40900000  * -49.00000000  *
   687       H         64.61100000  *  158.08000000  * -48.04700000  *
   688       C         65.02100000  *  158.33100000  * -50.15400000  *
   689       H         66.02700000  *  157.94000000  * -50.08800000  *
   690       C         64.12600000  *  156.63800000  * -53.50400000  *
   691       O         63.47600000  *  157.01300000  * -54.48300000  *
   692       N         63.66100000  *  155.74400000  * -52.62800000  *
   693       H         64.26900000  *  155.46900000  * -51.86600000  *
   694       C         62.26700000  *  155.29200000  * -52.55500000  *
   695       H         61.66700000  *  155.83100000  * -53.29100000  *
   696       C         62.15200000  *  153.78600000  * -52.84600000  *
   697       H         62.90100000  *  153.24900000  * -52.26800000  *
   698       H         61.16900000  *  153.46300000  * -52.49900000  *
   699       C         62.27500000  *  153.42900000  * -54.34100000  *
   700       H         61.89100000  *  154.24900000  * -54.94600000  *
   701       C         63.72400000  *  153.14400000  * -54.73500000  *
   702       H         64.12700000  *  152.34400000  * -54.11700000  *
   703       H         63.77700000  *  152.86500000  * -55.78700000  *
   704       H         64.32900000  *  154.03600000  * -54.58900000  *
   705       C         61.45000000  *  152.18100000  * -54.66600000  *
   706       H         60.40900000  *  152.34000000  * -54.38100000  *
   707       H         61.48300000  *  151.98900000  * -55.73700000  *
   708       H         61.83900000  *  151.31600000  * -54.13000000  *
   709       C         61.69000000  *  155.63400000  * -51.17700000  *
   710       O         62.40200000  *  155.63100000  * -50.17500000  *
   711       N         60.40700000  *  155.98400000  * -51.14000000  *
   712       H         59.89200000  *  155.98100000  * -52.01200000  *
   713       C         59.77600000  *  156.68300000  * -50.01600000  *
   714       H         60.43000000  *  157.50400000  * -49.72200000  *
   715       C         58.45900000  *  157.30000000  * -50.50600000  *
   716       H         57.72700000  *  156.50200000  * -50.63900000  *
   717       H         58.09300000  *  157.98000000  * -49.74000000  *
   718       C         58.56400000  *  158.05700000  * -51.81100000  *
   719       N         58.58600000  *  157.47600000  * -53.08500000  *
   720       C         58.71400000  *  158.49500000  * -53.95200000  *
   721       H         58.76100000  *  158.39300000  * -55.03100000  *
   722       N         58.77900000  *  159.66400000  * -53.29200000  *
   723       H         58.87500000  *  160.57600000  * -53.72900000  *
   724       C         58.69100000  *  159.40800000  * -51.94200000  *
   725       H         58.71700000  *  160.13200000  * -51.13600000  *
   726       C         59.55100000  *  155.84300000  * -48.74500000  *
   727       O         59.45100000  *  156.41500000  * -47.65900000  *
   728       N         59.45800000  *  154.51300000  * -48.85700000  *
   729       H         59.56500000  *  154.10300000  * -49.77500000  *
   730       C         59.09700000  *  153.60600000  * -47.75600000  *
   731       H         59.56200000  *  153.96600000  * -46.83800000  *
   732       C         57.56500000  *  153.64800000  * -47.56900000  *
   733       H         57.28500000  *  154.66400000  * -47.28700000  *
   734       H         57.07300000  *  153.41300000  * -48.51400000  *
   735       C         57.04400000  *  152.68300000  * -46.49200000  *
   736       H         56.91700000  *  151.69600000  * -46.93200000  *
   737       H         57.77400000  *  152.61400000  * -45.68700000  *
   738       C         55.72700000  *  153.14100000  * -45.87600000  *
   739       O         55.68800000  *  153.84400000  * -44.88000000  *
   740       N         54.59600000  *  152.76600000  * -46.43400000  *
   741       H         53.74700000  *  153.09100000  * -45.99800000  *
   742       H         54.59700000  *  152.21600000  * -47.27400000  *
   743       C         59.61200000  *  152.17400000  * -47.99700000  *
   744       O         59.68100000  *  151.72200000  * -49.14300000  *
   745       N         59.96000000  *  151.45200000  * -46.92500000  *
   746       H         59.86100000  *  151.88000000  * -46.00500000  *
   747       C         60.28700000  *  150.01900000  * -46.99200000  *
   748       H         60.58400000  *  149.79700000  * -48.01300000  *
   749       C         61.51200000  *  149.68600000  * -46.12200000  *
   750       H         61.83900000  *  148.67800000  * -46.38200000  *
   751       H         62.32200000  *  150.36600000  * -46.39300000  *
   752       C         61.28700000  *  149.74100000  * -44.60700000  *
   753       O         60.31000000  *  149.13500000  * -44.12000000  *
   754       O         62.14000000  *  150.33600000  * -43.90700000  *
   755       C         59.07800000  *  149.10600000  * -46.69600000  *
   756       O         58.04600000  *  149.53900000  * -46.16400000  *
   757       N         59.19100000  *  147.81900000  * -47.04800000  *
   758       H         60.03800000  *  147.50900000  * -47.52500000  *
   759       C         58.10100000  *  146.88000000  * -46.84100000  *
   760       H         57.21800000  *  147.32500000  * -47.29300000  *
   761       C         58.41200000  *  145.57700000  * -47.59200000  *
   762       H         58.61300000  *  145.80400000  * -48.64400000  *
   763       H         59.28800000  *  145.12100000  * -47.15800000  *
   764       C         57.28700000  *  144.52700000  * -47.51900000  *
   765       H         57.05600000  *  144.28000000  * -46.48700000  *
   766       C         56.00700000  *  145.04400000  * -48.19600000  *
   767       H         56.23500000  *  145.37800000  * -49.20200000  *
   768       H         55.26800000  *  144.24500000  * -48.23100000  *
   769       H         55.59500000  *  145.87000000  * -47.62900000  *
   770       C         57.76800000  *  143.24900000  * -48.17500000  *
   771       H         58.61500000  *  142.85400000  * -47.62000000  *
   772       H         56.97300000  *  142.50400000  * -48.17100000  *
   773       H         58.06400000  *  143.44500000  * -49.20700000  *
   774       C         57.76400000  *  146.61300000  * -45.36900000  *
   775       O         56.60900000  *  146.37600000  * -45.03000000  *
   776       N         58.75700000  *  146.67700000  * -44.48800000  *
   777       H         59.64000000  *  147.08600000  * -44.79000000  *
   778       C         58.49100000  *  146.46700000  * -43.07300000  *
   779       H         57.97900000  *  145.55100000  * -42.87200000  *
   780       C         59.78200000  *  146.47800000  * -42.25400000  *
   781       H         60.44800000  *  145.70000000  * -42.62000000  *
   782       H         60.28600000  *  147.44000000  * -42.35600000  *
   783       C         59.49200000  *  146.22900000  * -40.76500000  *
   784       H         58.94200000  *  147.08300000  * -40.37400000  *
   785       H         58.87100000  *  145.33200000  * -40.67600000  *
   786       C         60.74500000  *  146.03800000  * -39.93500000  *
   787       H         61.36100000  *  145.25900000  * -40.37900000  *
   788       H         61.30800000  *  146.97100000  * -39.90700000  *
   789       C         60.37600000  *  145.60700000  * -38.51700000  *
   790       H         59.98500000  *  144.58900000  * -38.53700000  *
   791       H         61.27900000  *  145.61300000  * -37.90300000  *
   792       N         59.34600000  *  146.53100000  * -37.94700000  *
   793       H         58.44600000  *  146.48100000  * -38.44300000  *
   794       H         59.09000000  *  146.27800000  * -37.00400000  *
   795       H         59.61300000  *  147.50600000  * -37.97800000  *
   796       C         57.55800000  *  147.53800000  * -42.51200000  *
   797       O         56.61300000  *  147.23400000  * -41.78300000  *
   798       N         57.83500000  *  148.81600000  * -42.79700000  *
   799       H         58.66300000  *  149.01500000  * -43.36300000  *
   800       C         56.99300000  *  149.92100000  * -42.31700000  *
   801       H         56.87500000  *  149.81800000  * -41.23600000  *
   802       C         57.65700000  *  151.27900000  * -42.59200000  *
   803       H         58.65800000  *  151.27600000  * -42.15800000  *
   804       H         57.74200000  *  151.43600000  * -43.66800000  *
   805       C         56.83800000  *  152.41800000  * -41.95900000  *
   806       H         55.87100000  *  152.48700000  * -42.45800000  *
   807       H         56.66700000  *  152.19000000  * -40.90500000  *
   808       C         57.54100000  *  153.77800000  * -42.05600000  *
   809       H         58.47600000  *  153.73700000  * -41.49400000  *
   810       H         57.75400000  *  154.00300000  * -43.10200000  *
   811       C         56.62800000  *  154.86100000  * -41.46400000  *
   812       H         55.69800000  *  154.88600000  * -42.04100000  *
   813       H         56.37400000  *  154.57900000  * -40.43700000  *
   814       N         57.26900000  *  156.20000000  * -41.47400000  *
   815       H         57.48700000  *  156.49700000  * -42.41400000  *
   816       H         56.65700000  *  156.89600000  * -41.07100000  *
   817       H         58.12300000  *  156.20200000  * -40.93700000  *
   818       C         55.59500000  *  149.82000000  * -42.91900000  *
   819       O         54.61100000  *  150.04600000  * -42.22100000  *
   820       N         55.49500000  *  149.42600000  * -44.18900000  *
   821       H         56.35000000  *  149.26300000  * -44.71300000  *
   822       C         54.20500000  *  149.26000000  * -44.85200000  *
   823       H         53.62600000  *  150.17500000  * -44.72500000  *
   824       C         54.41000000  *  148.98800000  * -46.34000000  *
   825       H         54.98900000  *  149.80200000  * -46.77700000  *
   826       H         55.00200000  *  148.07700000  * -46.45200000  *
   827       C         53.12600000  *  148.85300000  * -47.10800000  *
   828       C         52.23100000  *  149.92200000  * -47.18600000  *
   829       H         52.46300000  *  150.85600000  * -46.69900000  *
   830       C         51.01500000  *  149.79500000  * -47.88400000  *
   831       H         50.32500000  *  150.62800000  * -47.91800000  *
   832       C         50.69700000  *  148.60300000  * -48.50200000  *
   833       H         49.75200000  *  148.50200000  * -49.02000000  *
   834       C         51.58700000  *  147.52100000  * -48.43200000  *
   835       H         51.33500000  *  146.58300000  * -48.91200000  *
   836       C         52.79500000  *  147.65400000  * -47.73300000  *
   837       H         53.46700000  *  146.81000000  * -47.67200000  *
   838       C         53.37400000  *  148.12200000  * -44.22700000  *
   839       O         52.16900000  *  148.28300000  * -44.00900000  *
   840       N         54.01600000  *  146.98100000  * -43.96600000  *
   841       H         55.00900000  *  146.90600000  * -44.17900000  *
   842       C         53.33800000  *  145.83600000  * -43.34100000  *
   843       H         52.47600000  *  145.52800000  * -43.93400000  *
   844       C         54.29200000  *  144.65000000  * -43.17000000  *
   845       H         55.15800000  *  145.02700000  * -42.63600000  *
   846       H         53.80700000  *  143.89200000  * -42.54700000  *
   847       C         54.73100000  *  144.00400000  * -44.46100000  *
   848       H         53.84700000  *  143.61400000  * -44.95900000  *
   849       H         55.19200000  *  144.69400000  * -45.15000000  *
   850       S         55.79700000  *  142.58100000  * -44.15400000  *
   851       C         57.05400000  *  143.29200000  * -43.18800000  *
   852       H         56.67800000  *  143.65800000  * -42.23500000  *
   853       H         57.80700000  *  142.53400000  * -42.98200000  *
   854       H         57.44300000  *  144.07900000  * -43.80900000  *
   855       C         52.84400000  *  146.26000000  * -41.95900000  *
   856       O         51.68200000  *  146.03200000  * -41.61400000  *
   857       N         53.72600000  *  146.88400000  * -41.17900000  *
   858       H         54.70100000  *  146.95700000  * -41.45300000  *
   859       C         53.34300000  *  147.35100000  * -39.84600000  *
   860       H         53.03400000  *  146.49700000  * -39.23800000  *
   861       C         54.50500000  *  148.07700000  * -39.15700000  *
   862       H         54.94100000  *  148.81500000  * -39.83000000  *
   863       H         54.12400000  *  148.60600000  * -38.28400000  *
   864       C         55.58400000  *  147.11500000  * -38.68500000  *
   865       O         55.26200000  *  145.90900000  * -38.57600000  *
   866       O         56.73300000  *  147.55200000  * -38.41700000  *
   867       C         52.15000000  *  148.27900000  * -39.96300000  *
   868       O         51.20300000  *  148.18000000  * -39.18700000  *
   869       N         52.18300000  *  149.16200000  * -40.95500000  *
   870       H         53.01600000  *  149.23700000  * -41.51800000  *
   871       C         51.08600000  *  150.10000000  * -41.17300000  *
   872       H         50.93100000  *  150.67400000  * -40.25800000  *
   873       C         51.42800000  *  151.06800000  * -42.31500000  *
   874       H         51.45500000  *  150.53900000  * -43.26600000  *
   875       H         50.66000000  *  151.83800000  * -42.36800000  *
   876       H         52.39300000  *  151.53600000  * -42.12800000  *
   877       C         49.78900000  *  149.37000000  * -41.49900000  *
   878       O         48.71100000  *  149.83600000  * -41.15600000  *
   879       N         49.90500000  *  148.22900000  * -42.16400000  *
   880       H         50.83800000  *  147.88500000  * -42.38200000  *
   881       C         48.74000000  *  147.45400000  * -42.57500000  *
   882       H         47.85700000  *  148.08600000  * -42.62800000  *
   883       H         48.90600000  *  147.02300000  * -43.58600000  *
   884       H         48.52600000  *  146.61900000  * -41.88800000  *
   885       H         72.54500000  *  137.05800000  * -55.15200000  *
   886       C         72.38600000  *  137.90500000  * -54.47400000  *
   887       O         73.28300000  *  138.71900000  * -54.28600000  *
   888       N         71.20100000  *  138.01500000  * -53.89800000  *
   889       H         70.47300000  *  137.31400000  * -54.05700000  *
   890       C         70.96800000  *  139.10000000  * -52.94900000  *
   891       H         71.50000000  *  140.00600000  * -53.22900000  *
   892       C         69.47700000  *  139.40500000  * -52.82500000  *
   893       H         69.09300000  *  139.71900000  * -53.79200000  *
   894       H         68.93000000  *  138.50600000  * -52.53300000  *
   895       C         69.17800000  *  140.45400000  * -51.81200000  *
   896       N         69.23000000  *  140.42300000  * -50.45900000  *
   897       C         68.94700000  *  141.69100000  * -50.01400000  *
   898       H         68.96900000  *  142.01200000  * -48.98400000  *
   899       N         68.72400000  *  142.47200000  * -51.05500000  *
   900       H         68.47200000  *  143.44500000  * -51.00700000  *
   901       C         68.85400000  *  141.75000000  * -52.15500000  *
   902       H         68.77100000  *  142.12600000  * -53.16500000  *
   903       C         71.52100000  *  138.65700000  * -51.58300000  *
   904       O         72.28000000  *  139.38000000  * -50.94700000  *
   905       N         71.11400000  *  137.47100000  * -51.14500000  *
   906       H         70.37100000  *  137.01600000  * -51.66500000  *
   907       C         71.55500000  *  136.88000000  * -49.87700000  *
   908       H         71.18200000  *  135.84900000  * -49.87900000  *
   909       C         73.07600000  *  136.85300000  * -49.83700000  *
   910       H         73.53100000  *  137.83300000  * -49.86900000  *
   911       H         73.36600000  *  136.47900000  * -48.85100000  *
   912       C         73.64700000  *  135.85900000  * -50.81700000  *
   913       H         73.29800000  *  134.87100000  * -50.67200000  *
   914       H         73.21600000  *  136.10500000  * -51.78700000  *
   915       C         75.11700000  *  136.08400000  * -50.99900000  *
   916       H         75.61200000  *  135.95400000  * -50.03300000  *
   917       H         75.49500000  *  135.33200000  * -51.69500000  *
   918       N         75.35800000  *  137.42700000  * -51.50600000  *
   919       H         74.62100000  *  138.12700000  * -51.38200000  *
   920       C         76.54800000  *  137.85900000  * -51.89000000  *
   921       N         77.59300000  *  137.04400000  * -51.81500000  *
   922       H         77.44700000  *  136.21200000  * -51.26800000  *
   923       H         78.49900000  *  137.44300000  * -51.92100000  *
   924       N         76.69000000  *  139.09300000  * -52.35600000  *
   925       H         75.86000000  *  139.69200000  * -52.33800000  *
   926       H         77.56200000  *  139.47800000  * -52.67100000  *
   927       C         71.03700000  *  137.42400000  * -48.54200000  *
   928       O         71.18700000  *  136.76800000  * -47.50900000  *
   929       N         70.43700000  *  138.60400000  * -48.51600000  *
   930       H         70.32800000  *  139.16900000  * -49.34700000  *
   931       C         69.93700000  *  139.07600000  * -47.23100000  *
   932       H         69.76500000  *  138.24900000  * -46.54100000  *
   933       C         70.93500000  *  140.04200000  * -46.56200000  *
   934       H         71.90900000  *  139.56600000  * -46.50900000  *
   935       H         71.04400000  *  140.94300000  * -47.17900000  *
   936       C         70.51300000  *  140.42800000  * -45.14700000  *
   937       O         70.17200000  *  139.51500000  * -44.35500000  *
   938       O         70.51000000  *  141.64400000  * -44.82500000  *
   939       C         68.58700000  *  139.73400000  * -47.37800000  *
   940       O         68.35000000  *  140.81000000  * -46.83500000  *
   941       N         67.68700000  *  139.08300000  * -48.11000000  *
   942       H         67.94300000  *  138.20800000  * -48.54500000  *
   943       C         66.35900000  *  139.64900000  * -48.29900000  *
   944       H         66.47700000  *  140.66700000  * -48.65900000  *
   945       C         65.54600000  *  138.81300000  * -49.28800000  *
   946       H         65.58300000  *  137.78400000  * -48.94500000  *
   947       H         64.50600000  *  139.14000000  * -49.25500000  *
   948       C         66.02700000  *  138.85500000  * -50.73600000  *
   949       H         67.06400000  *  138.52800000  * -50.78200000  *
   950       C         65.17300000  *  137.91700000  * -51.58300000  *
   951       H         64.15900000  *  138.30500000  * -51.68800000  *
   952       H         65.63400000  *  137.80700000  * -52.55000000  *
   953       H         65.13400000  *  136.93500000  * -51.11000000  *
   954       C         65.92100000  *  140.27700000  * -51.26400000  *
   955       H         66.42000000  *  140.99600000  * -50.63300000  *
   956       H         66.44200000  *  140.27500000  * -52.20900000  *
   957       H         64.88200000  *  140.56100000  * -51.39700000  *
   958       C         65.59400000  *  139.73400000  * -46.98200000  *
   959       O         65.58600000  *  138.79200000  * -46.16600000  *
   960       N         64.95500000  *  140.85500000  * -46.74600000  *
   961       H         64.96400000  *  141.58600000  * -47.44400000  *
   962       C         64.16300000  *  141.05900000  * -45.54900000  *
   963       H         63.55000000  *  140.16900000  * -45.41400000  *
   964       C         65.03700000  *  141.21900000  * -44.28600000  *
   965       H         64.39900000  *  141.28200000  * -43.40400000  *
   966       H         65.63200000  *  140.31400000  * -44.16800000  *
   967       C         65.97600000  *  142.43100000  * -44.28600000  *
   968       H         66.38900000  *  142.58200000  * -45.28100000  *
   969       H         65.42400000  *  143.32200000  * -43.98700000  *
   970       C         67.12900000  *  142.16300000  * -43.31200000  *
   971       H         66.72900000  *  141.88700000  * -42.33400000  *
   972       H         67.70800000  *  141.32200000  * -43.70300000  *
   973       C         68.03900000  *  143.38400000  * -43.15700000  *
   974       H         68.14700000  *  143.87600000  * -44.12900000  *
   975       H         67.55800000  *  144.09300000  * -42.47300000  *
   976       N         69.37100000  *  142.97100000  * -42.64400000  *
   977       H         69.86500000  *  142.40900000  * -43.35100000  *
   978       H         69.93600000  *  143.77700000  * -42.40600000  *
   979       H         69.27500000  *  142.41000000  * -41.80800000  *
   980       C         63.26400000  *  142.22800000  * -45.83900000  *
   981       O         63.62500000  *  143.07200000  * -46.66000000  *
   982       N         62.11200000  *  142.30300000  * -45.18600000  *
   983       C         61.62600000  *  141.34600000  * -44.17100000  *
   984       H         62.10000000  *  141.53200000  * -43.20900000  *
   985       H         61.74500000  *  140.31100000  * -44.47600000  *
   986       C         60.16400000  *  141.66900000  * -44.09500000  *
   987       H         59.73700000  *  141.34900000  * -43.14300000  *
   988       H         59.63700000  *  141.20600000  * -44.93200000  *
   989       C         60.16000000  *  143.18900000  * -44.24800000  *
   990       H         60.51600000  *  143.64900000  * -43.32100000  *
   991       H         59.20200000  *  143.56500000  * -44.57400000  *
   992       C         61.14500000  *  143.38000000  * -45.40300000  *
   993       H         60.63400000  *  143.20500000  * -46.34500000  *
   994       C         61.77100000  *  144.77100000  * -45.44800000  *
   995       O         61.39200000  *  145.58400000  * -46.27300000  *
   996       N         62.73100000  *  145.08700000  * -44.56000000  *
   997       H         62.97200000  *  144.39700000  * -43.86400000  *
   998       C         63.45200000  *  146.38200000  * -44.53400000  *
   999       H         62.72400000  *  147.19000000  * -44.43900000  *
  1000       C         64.40800000  *  146.44300000  * -43.32800000  *
  1001       H         65.09700000  *  145.60000000  * -43.38000000  *
  1002       H         64.99800000  *  147.35800000  * -43.40300000  *
  1003       C         63.71500000  *  146.45400000  * -41.95900000  *
  1004       H         63.02400000  *  147.29700000  * -41.92200000  *
  1005       H         63.14900000  *  145.53300000  * -41.82600000  *
  1006       C         64.72300000  *  146.56500000  * -40.81300000  *
  1007       O         65.75100000  *  145.90100000  * -40.78600000  *
  1008       N         64.47500000  *  147.39300000  * -39.82200000  *
  1009       H         65.15000000  *  147.45600000  * -39.07400000  *
  1010       H         63.65700000  *  147.98200000  * -39.82800000  *
  1011       C         64.29200000  *  146.67200000  * -45.79600000  *
  1012       O         64.51800000  *  147.82800000  * -46.14600000  *
  1013       N         64.76000000  *  145.62400000  * -46.47800000  *
  1014       H         64.45700000  *  144.70600000  * -46.18600000  *
  1015       C         65.53600000  *  145.68700000  * -47.71800000  *
  1016       H         66.09700000  *  146.62200000  * -47.75500000  *
  1017       C         66.55200000  *  144.51500000  * -47.74500000  *
  1018       H         66.05600000  *  143.58900000  * -47.46500000  *
  1019       H         66.92100000  *  144.38200000  * -48.76000000  *
  1020       C         67.78400000  *  144.71700000  * -46.87100000  *
  1021       O         68.08800000  *  145.80600000  * -46.41200000  *
  1022       N         68.54300000  *  143.67600000  * -46.60400000  *
  1023       H         69.41800000  *  143.83600000  * -46.13200000  *
  1024       H         68.29800000  *  142.72500000  * -46.86400000  *
  1025       C         64.63200000  *  145.69900000  * -48.96800000  *
  1026       O         65.15500000  *  145.60900000  * -50.07700000  *
  1027       N         63.30000000  *  145.80300000  * -48.83400000  *
  1028       H         62.89500000  *  145.87300000  * -47.90900000  *
  1029       C         62.40600000  *  145.84500000  * -49.97900000  *
  1030       H         62.94700000  *  145.74800000  * -50.91900000  *
  1031       C         61.36900000  *  144.72100000  * -49.88900000  *
  1032       H         60.76900000  *  144.86100000  * -48.99200000  *
  1033       H         60.74400000  *  144.79800000  * -50.77200000  *
  1034       C         62.03600000  *  143.32400000  * -49.85900000  *
  1035       H         62.67100000  *  143.24000000  * -48.98800000  *
  1036       C         61.00200000  *  142.26000000  * -49.77100000  *
  1037       H         60.24600000  *  142.42800000  * -50.53400000  *
  1038       H         61.44700000  *  141.27100000  * -49.89000000  *
  1039       H         60.52000000  *  142.31900000  * -48.79800000  *
  1040       C         62.89500000  *  143.12600000  * -51.08400000  *
  1041       H         63.82900000  *  143.66800000  * -50.95600000  *
  1042       H         63.12900000  *  142.06900000  * -51.20900000  *
  1043       H         62.39300000  *  143.49200000  * -51.96600000  *
  1044       C         61.76300000  *  147.21800000  * -49.95200000  *
  1045       O         61.15000000  *  147.60200000  * -48.96600000  *
  1046       N         61.90000000  *  147.98900000  * -51.02400000  *
  1047       H         62.39300000  *  147.61900000  * -51.83200000  *
  1048       C         61.43900000  *  149.37700000  * -51.06000000  *
  1049       H         61.05700000  *  149.67900000  * -50.08700000  *
  1050       C         62.59000000  *  150.30700000  * -51.41900000  *
  1051       H         62.91300000  *  150.08700000  * -52.43700000  *
  1052       H         62.20600000  *  151.32500000  * -51.38300000  *
  1053       C         63.80100000  *  150.20200000  * -50.49100000  *
  1054       H         64.25000000  *  149.21500000  * -50.57900000  *
  1055       C         64.79500000  *  151.24900000  * -50.95400000  *
  1056       H         64.42500000  *  152.23500000  * -50.68700000  *
  1057       H         65.75500000  *  151.06000000  * -50.48500000  *
  1058       H         64.92100000  *  151.21700000  * -52.03100000  *
  1059       C         63.47100000  *  150.46900000  * -49.02400000  *
  1060       H         62.86100000  *  149.65500000  * -48.63900000  *
  1061       H         64.38600000  *  150.50700000  * -48.43600000  *
  1062       H         62.93000000  *  151.41000000  * -48.92000000  *
  1063       C         60.31300000  *  149.55000000  * -52.05800000  *
  1064       O         60.40400000  *  149.07900000  * -53.17800000  *
  1065       N         59.26800000  *  150.25600000  * -51.67700000  *
  1066       H         59.36500000  *  150.76300000  * -50.80000000  *
  1067       C         58.08300000  *  150.44700000  * -52.50800000  *
  1068       H         58.17300000  *  149.92400000  * -53.45700000  *
  1069       C         56.81900000  *  149.90600000  * -51.78600000  *
  1070       H         55.94300000  *  150.08700000  * -52.41500000  *
  1071       C         56.95000000  *  148.40400000  * -51.54300000  *
  1072       H         57.75300000  *  148.18300000  * -50.83300000  *
  1073       H         56.01300000  *  148.00400000  * -51.15200000  *
  1074       H         57.15800000  *  147.91500000  * -52.48900000  *
  1075       C         56.64700000  *  150.60600000  * -50.43300000  *
  1076       H         57.48200000  *  150.38000000  * -49.77500000  *
  1077       H         56.60500000  *  151.68300000  * -50.57600000  *
  1078       C         55.37000000  *  150.22200000  * -49.68600000  *
  1079       H         55.48900000  *  149.24800000  * -49.22200000  *
  1080       H         55.17000000  *  150.96500000  * -48.91000000  *
  1081       H         54.52900000  *  150.16800000  * -50.38500000  *
  1082       C         57.87200000  *  151.93000000  * -52.81700000  *
  1083       O         58.38200000  *  152.79400000  * -52.10000000  *
  1084       N         57.14900000  *  152.22000000  * -53.89700000  *
  1085       H         56.70500000  *  151.48200000  * -54.43300000  *
  1086       C         56.84100000  *  153.60200000  * -54.22700000  *
  1087       H         57.16800000  *  154.27800000  * -53.43100000  *
  1088       C         57.50400000  *  154.05300000  * -55.54100000  *
  1089       H         57.21800000  *  155.07000000  * -55.80500000  *
  1090       H         58.58200000  *  154.04400000  * -55.38800000  *
  1091       C         57.19300000  *  153.14600000  * -56.70100000  *
  1092       O         56.13500000  *  152.53500000  * -56.76400000  *
  1093       N         58.11500000  *  153.07200000  * -57.64100000  *
  1094       H         57.83300000  *  152.61700000  * -58.48600000  *
  1095       H         58.88600000  *  153.71500000  * -57.62100000  *
  1096       C         55.33100000  *  153.75800000  * -54.32100000  *
  1097       O         54.57600000  *  152.79900000  * -54.11400000  *
  1098       N         54.88500000  *  154.97100000  * -54.62100000  *
  1099       H         55.52100000  *  155.73600000  * -54.79200000  *
  1100       C         53.46400000  *  155.24700000  * -54.72300000  *
  1101       H         52.92700000  *  154.82600000  * -53.87200000  *
  1102       C         53.20900000  *  156.78000000  * -54.75500000  *
  1103       H         52.16900000  *  156.98000000  * -55.02600000  *
  1104       C         53.47800000  *  157.39700000  * -53.41000000  *
  1105       H         54.52100000  *  157.25500000  * -53.13000000  *
[...]
 1005  H   0.82995
 1006  C   1.06522   0.79766   0.73375   0.79789
 1007  O   1.87740   1.40421   1.58108   1.83504
 1008  N   1.52696   1.34407   1.42727   1.30136
 1009  H   0.65764
 1010  H   0.66183
 1011  C   1.08355   0.75700   0.78087   0.81426
 1012  O   1.88463   1.66020   1.31265   1.73598
 1013  N   1.55163   1.50747   1.20275   1.30099
 1014  H   0.66537
 1015  C   1.07227   0.94693   1.09601   0.82033
 1016  H   0.80373
 1017  C   1.07073   1.04848   1.08967   1.16558
 1018  H   0.83151
 1019  H   0.79633
 1020  C   1.05843   0.80573   0.76649   0.75478
 1021  O   1.87621   1.77379   1.39546   1.62265
 1022  N   1.53122   1.30958   1.19447   1.58809
 1023  H   0.66540
 1024  H   0.65470
 1025  C   1.08732   0.78526   0.71999   0.85314
 1026  O   1.87897   1.76652   1.61011   1.38028
 1027  N   1.54099   1.12633   1.66480   1.18336
 1028  H   0.65378
 1029  C   1.06986   0.96894   0.97951   0.97474
 1030  H   0.81099
 1031  C   1.06730   1.06454   0.99787   1.17274
 1032  H   0.83725
 1033  H   0.84823
 1034  C   1.04101   1.01187   0.94627   1.06226
 1035  H   0.85568
 1036  C   1.04919   1.12591   1.11849   1.17076
 1037  H   0.84497
 1038  H   0.84903
 1039  H   0.86565
 1040  C   1.05153   1.14161   1.17176   1.09907
 1041  H   0.84447
 1042  H   0.85767
 1043  H   0.84995
 1044  C   1.07660   0.74950   0.84269   0.75571
 1045  O   1.87194   1.53828   1.79739   1.44505
 1046  N   1.54591   1.55268   1.17239   1.25030
 1047  H   0.64518
 1048  C   1.06461   0.98752   0.82775   1.09963
 1049  H   0.81385
 1050  C   1.06420   1.02613   1.10366   1.12648
 1051  H   0.84626
 1052  H   0.84054
 1053  C   1.04784   0.96979   1.07007   0.96775
 1054  H   0.86552
 1055  C   1.05399   1.12890   1.12764   1.16379
 1056  H   0.84626
 1057  H   0.84903
 1058  H   0.85905
 1059  C   1.05484   1.17569   1.17584   1.04686
 1060  H   0.84097
 1061  H   0.85225
 1062  H   0.84762
 1063  C   1.07436   0.79924   0.74418   0.81726
 1064  O   1.86782   1.83081   1.62448   1.34528
 1065  N   1.54037   1.19446   1.46547   1.29654
 1066  H   0.64480
 1067  C   1.07612   0.88902   1.00803   1.04173
 1068  H   0.80995
 1069  C   1.06431   1.01566   0.99292   1.01974
 1070  H   0.85029
 1071  C   1.05462   1.18108   1.03426   1.17653
 1072  H   0.84335
 1073  H   0.84527
 1074  H   0.85321
 1075  C   1.05401   1.06958   1.12047   1.03134
 1076  H   0.84538
 1077  H   0.86056
 1078  C   1.05244   1.08975   1.15713   1.13174
 1079  H   0.84837
 1080  H   0.87843
 1081  H   0.84690
 1082  C   1.08575   0.74347   0.88673   0.74343
 1083  O   1.88689   1.56805   1.57577   1.55659
 1084  N   1.54273   1.50699   1.14432   1.33719
 1085  H   0.64414
 1086  C   1.06262   0.97129   0.88373   1.03870
 1087  H   0.80099
 1088  C   1.07227   1.18055   1.12616   1.02296
 1089  H   0.81100
 1090  H   0.80555
 1091  C   1.06114   0.76076   0.76998   0.82313
 1092  O   1.88000   1.35632   1.57018   1.83603
 1093  N   1.53432   1.29831   1.49547   1.27245
 1094  H   0.67213
 1095  H   0.66489
 1096  C   1.08279   0.88447   0.75840   0.71150
 1097  O   1.88758   1.65505   1.46956   1.59083
 1098  N   1.53999   1.14464   1.19785   1.67151
 1099  H   0.66273
 1100  C   1.08544   0.83779   1.05767   1.08140
 1101  H   0.80399
 1102  C   1.08416   0.99074   0.86724   0.88999
 1103  H   0.84763
 1104  C   1.05385   1.18481   1.17988   1.05476
 1105  H   0.84070
 1106  H   0.82468
 1107  H   0.82919
 1108  O   1.84896   1.59175   1.82278   1.34462
 1109  H   0.64329
 1110  C   1.07360   0.78884   0.75520   0.82436
 1111  O   1.87781   1.28025   1.68934   1.84901
 1112  N   1.53340   1.19376   1.53476   1.21095
 1113  H   0.66668
 1114  C   1.05706   1.15367   1.13329   0.89334
 1115  H   0.83550
 1116  H   0.83799
 1117  H   0.83548
 1118  H   0.83986
 1119  C   1.10503   0.75514   0.73547   0.91348
 1120  O   1.88316   1.71078   1.59645   1.48261
 1121  N   1.54489   1.42812   1.34568   1.20833
 1122  H   0.65358
 1123  C   1.08080   0.93089   1.08467   0.93133
 1124  H   0.80911
 1125  C   1.07310   1.07903   0.95366   0.98256
 1126  H   0.84413
 1127  C   1.05810   1.18704   1.08402   1.12923
 1128  H   0.84359
 1129  H   0.84851
 1130  H   0.85220
 1131  C   1.05414   1.07572   1.13475   1.01855
 1132  H   0.85369
 1133  H   0.85426
 1134  C   1.04916   1.14387   1.15093   1.09061
 1135  H   0.85005
 1136  H   0.85966
 1137  H   0.84949
 1138  C   1.07220   0.84178   0.73663   0.77753
 1139  O   1.87772   1.89048   1.52100   1.39086
 1140  N   1.54491   1.10284   1.52655   1.33569
 1141  H   0.63198
 1142  C   1.06988   0.84609   1.05345   1.03793
 1143  H   0.81805
 1144  C   1.06003   1.09275   1.04618   1.09597
 1145  H   0.83668
 1146  H   0.84632
 1147  C   1.05104   1.08552   1.04444   1.07796
 1148  H   0.85003
 1149  H   0.84492
 1150  C   1.05937   1.08198   1.05475   1.09839
 1151  H   0.84095
 1152  H   0.83224
 1153  C   1.07887   1.02195   0.99742   1.07419
 1154  H   0.81154
 1155  H   0.83374
 1156  N   1.45924   1.23086   1.22917   1.25644
 1157  H   0.69473
 1158  H   0.70025
 1159  H   0.68647
 1160  C   1.07825   0.77980   0.75055   0.82537
 1161  O   1.88112   1.77264   1.69305   1.29062
 1162  N   1.54479   1.32893   1.42530   1.23088
 1163  H   0.64045
 1164  C   1.07027   0.91878   0.95779   1.02902
 1165  H   0.83201
 1166  C   1.06273   1.10005   1.01940   1.13304
 1167  H   0.83524
 1168  H   0.84477
 1169  C   1.05370   1.07067   0.96115   0.96343
 1170  H   0.85971
 1171  C   1.06223   1.16611   1.13939   1.09238
 1172  H   0.85190
 1173  H   0.84930
 1174  H   0.85271
 1175  C   1.05739   1.18266   1.13693   1.08879
 1176  H   0.85341
 1177  H   0.84844
 1178  H   0.85425
 1179  C   1.08467   0.79162   0.79861   0.75892
 1180  O   1.88085   1.63464   1.59903   1.53790
 1181  N   1.54374   1.36982   1.43683   1.15957
 1182  H   0.64686
 1183  C   1.06750   0.91372   0.92732   1.05116
 1184  H   0.82815
 1185  C   1.05967   1.16276   1.08690   1.15400
 1186  H   0.82188
 1187  H   0.83329
 1188  H   0.82839
 1189  C   1.08782   0.78905   0.78300   0.74678
 1190  O   1.87327   1.84648   1.36411   1.58854
 1191  N   1.54662   1.16855   1.33131   1.48810
 1192  H   0.67331
 1193  C   1.07538   0.87568   1.08220   0.93365
 1194  H   0.81148
 1195  C   1.07967   1.14142   1.18648   1.00424
 1196  H   0.81127
 1197  H   0.82879
 1198  C   1.07350   0.74330   0.71677   0.70704
 1199  O   1.88604   1.81455   1.48979   1.54363
 1200  O   1.87559   1.64827   1.53239   1.80804
 1201  C   1.09153   0.82098   0.79605   0.74788
 1202  O   1.88774   1.27520   1.81101   1.55680
 1203  N   1.56772   1.29375   1.16872   1.54700
 1204  H   0.67975
 1205  C   1.07923   1.01854   0.91954   0.95272
 1206  H   0.83979
 1207  C   1.05569   1.07668   1.20333   0.96303
 1208  H   0.81246
 1209  H   0.82091
 1210  C   1.07492   0.97445   0.97724   0.96976
 1211  C   1.09007   1.04120   1.04165   1.01461
 1212  H   0.83982
 1213  C   1.08857   0.98556   1.06181   1.01104
 1214  H   0.84254
 1215  C   1.08745   1.05965   0.99183   1.03247
 1216  H   0.84791
 1217  C   1.08947   1.03736   1.03620   0.98941
 1218  H   0.83152
 1219  C   1.08738   0.98588   1.06416   1.02304
 1220  H   0.83775
 1221  C   1.09036   0.80296   0.77296   0.76258
 1222  O   1.88538   1.44382   1.55902   1.71371
 1223  N   1.53970   1.41526   1.43869   1.13723
 1224  H   0.68627
 1225  C   1.06843   0.98833   1.06908   0.98104
 1226  H   0.81550
 1227  H   0.80532
 1228  C   1.07987   0.82854   0.77895   0.70343
 1229  O   1.87716   1.84036   1.32341   1.60844
 1230  N   1.55916   1.30211   1.23377   1.45061
 1231  H   0.67458
 1232  C   1.07784   0.89766   1.03353   0.96967
 1233  H   0.83201
 1234  C   1.06799   1.11447   0.95004   1.17351
 1235  H   0.84128
 1236  H   0.82912
 1237  C   1.05178   1.03072   0.96031   1.01203
 1238  H   0.86276
 1239  C   1.05590   1.16894   1.06793   1.16203
 1240  H   0.85896
 1241  H   0.84120
 1242  H   0.85758
 1243  C   1.05567   1.17210   1.18946   1.04547
 1244  H   0.84183
 1245  H   0.83855
 1246  H   0.85850
 1247  C   1.09514   0.85801   0.76669   0.72750
 1248  O   1.88130   1.32426   1.78606   1.59278
 1249  N   1.58211   1.28172   1.23279   1.52146
 1250  H   0.66097
 1251  C   1.06870   0.96490   0.99757   0.95376
 1252  H   0.83611
 1253  C   1.05858   1.13922   1.09710   1.17434
 1254  H   0.84392
 1255  H   0.80963
 1256  H   0.81112
 1257  C   1.07565   0.83422   0.75254   0.78166
 1258  O   1.88398   1.49912   1.59882   1.64923
 1259  N   1.54299   1.31152   1.51232   1.14402
 1260  H   0.67635
 1261  C   1.06250   0.92400   1.14577   1.10583
 1262  H   0.82621
 1263  H   0.82960
 1264  H   0.83893
 1265  H   0.84119
 1266  C   1.10478   0.72490   0.79432   0.87704
 1267  O   1.88387   1.53286   1.36162   1.88304
 1268  N   1.54281   1.48763   1.35123   1.14841
 1269  H   0.67731
 1270  C   1.07278   1.11696   0.96752   0.82292
 1271  H   0.80261
 1272  C   1.05753   1.08998   1.02762   1.15050
 1273  H   0.83924
 1274  H   0.82065
 1275  C   1.06442   0.97786   0.95032   0.96844
 1276  C   1.08300   1.02004   0.99437   1.05942
 1277  H   0.83874
 1278  C   1.08255   1.04657   1.02689   0.99721
 1279  H   0.84387
 1280  C   1.08142   1.00617   1.05578   1.02593
 1281  H   0.84900
 1282  C   1.08078   1.02438   1.00366   1.05489
 1283  H   0.85448
 1284  C   1.08280   1.06004   1.02715   0.99697
 1285  H   0.84067
 1286  C   1.08002   0.76684   0.78618   0.79910
 1287  O   1.88376   1.53943   1.68076   1.53398
 1288  N   1.53631   1.17514   1.34764   1.43124
 1289  H   0.67324
 1290  C   1.05783   1.14243   0.97563   0.99835
 1291  H   0.81514
 1292  H   0.78913
 1293  C   1.07414   0.78789   0.75749   0.80183
 1294  O   1.88115   1.54110   1.38333   1.84169
 1295  N   1.53620   1.41044   1.37787   1.17737
 1296  H   0.65061
 1297  C   1.07416   1.00263   1.19828   0.87808
 1298  H   0.81315
 1299  H   0.79405
 1300  C   1.08207   0.77432   0.74509   0.80733
 1301  O   1.88291   1.52153   1.53256   1.73116
 1302  N   1.56471   1.44498   1.16596   1.26732
 1303  C   1.07072   1.06917   0.87080   1.05642
 1304  H   0.83624
 1305  H   0.84121
 1306  C   1.05705   1.04771   1.13523   1.05893
 1307  H   0.84536
 1308  H   0.80849
 1309  C   1.06099   1.08136   0.98362   1.17237
 1310  H   0.83540
 1311  H   0.81911
 1312  C   1.07356   1.05287   1.00096   0.86819
 1313  H   0.81308
 1314  C   1.08821   0.76368   0.76850   0.82876
 1315  O   1.88394   1.42686   1.43548   1.88332
 1316  N   1.54311   1.40341   1.48371   1.11751
 1317  H   0.64349
 1318  C   1.08220   1.04972   1.11409   0.89111
 1319  H   0.80090
 1320  H   0.78738
 1321  C   1.08825   0.82550   0.73032   0.77836
 1322  O   1.88491   1.70323   1.72965   1.32945
 1323  N   1.55110   1.23249   1.41128   1.34467
 1324  H   0.68840
 1325  C   1.07567   0.85986   1.06397   0.97843
 1326  H   0.82208
 1327  C   1.05961   1.16896   1.07555   0.97643
 1328  H   0.83486
 1329  H   0.83875
 1330  C   1.05818   1.13844   1.07477   1.02388
 1331  H   0.82467
 1332  H   0.87156
 1333  C   1.06375   1.08744   1.09997   0.78145
 1334  H   0.85047
 1335  H   0.81938
 1336  N   1.53281   1.62694   1.28991   1.09340
 1337  H   0.64880
 1338  C   0.97599   0.83628   0.80292   0.79450
 1339  N   1.50144   1.56338   1.25850   1.24812
 1340  H   0.67467
 1341  H   0.62635
 1342  N   1.50406   1.55702   1.35352   1.14117
 1343  H   0.64459
 1344  H   0.63721
 1345  C   1.08253   0.75734   0.77378   0.84376
 1346  O   1.88762   1.48095   1.64717   1.56798
 1347  N   1.54313   1.54521   1.19779   1.24094
 1348  H   0.67335
 1349  C   1.08992   0.99985   1.00960   0.91829
 1350  H   0.79919
 1351  C   1.08567   0.92928   0.92529   0.87484
 1352  H   0.85149
 1353  C   1.05845   1.09841   1.12872   1.20419
 1354  H   0.82568
 1355  H   0.83339
 1356  H   0.83067
 1357  O   1.84255   1.58479   1.64208   1.57177
 1358  H   0.62416
 1359  C   1.07905   0.80874   0.78960   0.75862
 1360  O   1.88641   1.54264   1.79531   1.37667
 1361  N   1.55277   1.32705   1.29588   1.37709
 1362  H   0.65173
 1363  C   1.07396   0.98893   0.92712   0.99371
 1364  H   0.81734
 1365  C   1.05776   1.09582   1.06847   1.08631
 1366  H   0.84125
 1367  H   0.82948
 1368  C   1.06156   0.97108   0.97496   1.05644
 1369  C   1.08268   0.97390   1.07987   0.99799
 1370  H   0.84511
 1371  C   1.08371   1.08276   0.99465   1.00722
 1372  H   0.80328
 1373  C   1.06576   0.82532   0.89621   0.91730
 1374  O   1.84118   1.47079   1.54199   1.69698
 1375  H   0.63903
 1376  C   1.07422   0.99042   1.09174   1.06704
 1377  H   0.84676
 1378  C   1.08140   1.06436   0.99885   0.99817
 1379  H   0.85829
 1380  C   1.08187   0.77651   0.73406   0.82093
 1381  O   1.88475   1.39052   1.55609   1.82927
 1382  N   1.55035   1.20058   1.60160   1.14814
 1383  H   0.66070
 1384  C   1.08722   1.11706   1.03485   0.83740
 1385  H   0.82137
 1386  C   1.08254   0.83225   0.89076   1.00015
 1387  H   0.86791
 1388  C   1.05719   1.09877   1.14111   1.18964
 1389  H   0.83130
 1390  H   0.84543
 1391  H   0.84161
 1392  O   1.84704   1.32384   1.76612   1.66696
 1393  H   0.61653
 1394  C   1.08197   0.82816   0.76391   0.79188
 1395  O   1.88731   1.29173   1.70679   1.67706
 1396  N   1.54289   1.22795   1.27102   1.47585
 1397  H   0.64947
 1398  C   1.07065   0.98392   1.04044   1.07607
 1399  H   0.84424
 1400  H   0.80869
 1401  C   1.07025   0.85080   0.72021   0.75160
 1402  O   1.88497   1.70080   1.45753   1.55938
 1403  N   1.55350   1.14734   1.51373   1.33252
 1404  H   0.67992
 1405  C   1.07058   0.82921   0.98709   1.12851
 1406  H   0.81442
 1407  C   1.05333   1.16410   0.99037   1.05273
 1408  H   0.83916
 1409  H   0.83661
 1410  C   1.05972   1.20536   1.01152   1.13805
 1411  H   0.84293
 1412  H   0.82586
 1413  C   1.06672   0.72274   0.72040   0.72776
 1414  O   1.88753   1.47397   1.82386   1.63739
 1415  O   1.88504   1.51743   1.58595   1.81388
 1416  C   1.08681   0.77115   0.86264   0.75465
 1417  O   1.88735   1.64837   1.65294   1.40929
 1418  N   1.54583   1.31034   1.19197   1.47864
 1419  H   0.65323
 1420  C   1.07213   1.06262   0.88121   1.00749
 1421  H   0.84363
 1422  C   1.05449   1.01873   1.03228   0.97104
 1423  H   0.83630
 1424  C   1.05591   1.17743   1.04874   1.19323
 1425  H   0.84541
 1426  H   0.83587
 1427  H   0.83804
 1428  C   1.05455   1.18127   1.16758   1.06135
 1429  H   0.84070
 1430  H   0.83988
 1431  H   0.85198
 1432  C   1.07568   0.77107   0.73157   0.84221
 1433  O   1.88368   1.36377   1.63752   1.76942
 1434  N   1.53826   1.27318   1.47286   1.21105
 1435  H   0.66887
 1436  C   1.07709   1.00703   1.05453   0.86813
 1437  H   0.82259
 1438  C   1.06064   1.02669   1.01608   0.97689
 1439  H   0.84037
 1440  C   1.05418   1.18414   1.09814   1.12141
 1441  H   0.84115
 1442  H   0.84075
 1443  H   0.85073
 1444  C   1.05737   1.18968   1.16661   1.05246
 1445  H   0.84618
 1446  H   0.83551
 1447  H   0.83888
 1448  C   1.08151   0.80674   0.78622   0.75097
 1449  O   1.88312   1.81175   1.47373   1.46044
 1450  N   1.53598   1.23689   1.43132   1.31656
 1451  H   0.66461
 1452  C   1.07959   0.90426   0.96815   1.14834
 1453  H   0.80521
 1454  C   1.07971   0.93539   0.82462   0.98303
 1455  H   0.86675
 1456  C   1.05745   1.09503   1.13579   1.19624
 1457  H   0.82485
 1458  H   0.82217
 1459  H   0.84132
 1460  O   1.84758   1.47781   1.49385   1.78185
 1461  H   0.64867
 1462  C   1.07068   0.75363   0.82650   0.79805
 1463  O   1.88054   1.50728   1.88269   1.36449
 1464  N   1.53714   1.55010   1.12175   1.29444
 1465  H   0.65702
 1466  C   1.05411   1.16775   0.87317   1.13580
 1467  H   0.83022
 1468  H   0.83679
 1469  H   0.85128
 1470  H   0.82737
 1471  C   1.10846   0.72194   0.77570   0.90300
 1472  O   1.87917   1.50026   1.39719   1.89102
 1473  N   1.54806   1.50781   1.35864   1.13688
 1474  H   0.67053
 1475  C   1.07821   1.08310   1.04080   0.80190
 1476  H   0.80370
 1477  C   1.05903   1.13423   0.99957   1.10164
 1478  H   0.81855
 1479  H   0.82214
 1480  C   1.06602   0.97584   0.99266   1.00501
 1481  C   1.08223   0.99074   1.02508   1.00497
 1482  H   0.83757
 1483  C   1.07634   1.10501   1.04968   1.06612
 1484  H   0.82048
 1485  C   1.07250   0.88651   0.88221   0.88003
 1486  O   1.83868   1.35497   1.61299   1.73281
 1487  H   0.61920
 1488  C   1.07859   0.98861   1.09950   1.09653
 1489  H   0.82145
 1490  C   1.08813   1.07867   0.97899   0.96928
 1491  H   0.83499
 1492  C   1.08085   0.79994   0.76891   0.79199
 1493  O   1.88631   1.81387   1.69945   1.28032
 1494  N   1.53472   1.25590   1.50895   1.18458
 1495  H   0.67095
 1496  C   1.06143   0.92031   1.08956   1.16676
 1497  H   0.83437
 1498  H   0.82975
 1499  H   0.83852
 1500  H   0.82495
 1501  C   1.10799   0.78631   0.88384   0.71626
 1502  O   1.88013   1.43039   1.87071   1.50910
 1503  N   1.55064   1.37513   1.18535   1.44525
 1504  H   0.64431
 1505  C   1.07867   0.96569   0.86317   1.12896
 1506  H   0.81510
 1507  C   1.05975   0.97984   0.99668   1.07639
 1508  H   0.84634
 1509  C   1.05205   1.15827   1.06259   1.17605
 1510  H   0.84457
 1511  H   0.84452
 1512  H   0.84172
 1513  C   1.04780   0.99997   1.12972   1.08504
 1514  H   0.86677
 1515  H   0.85352
 1516  C   1.04901   1.11599   1.12959   1.14946
 1517  H   0.85868
 1518  H   0.85749
 1519  H   0.84105
 1520  C   1.07239   0.85963   0.73792   0.75019
 1521  O   1.87626   1.57618   1.55614   1.67374
 1522  N   1.54214   1.18493   1.41745   1.37456
 1523  H   0.66205
 1524  C   1.07135   0.87896   1.16323   1.10823
 1525  H   0.84318
 1526  H   0.83228
 1527  H   0.83428
 1528  H   0.82776
 1529  C   1.10749   0.84816   0.73330   0.82090
 1530  O   1.88533   1.81642   1.62638   1.36675
 1531  N   1.53776   1.25346   1.40301   1.30528
 1532  H   0.64788
 1533  C   1.05918   0.89161   1.04068   1.02445
 1534  H   0.81933
 1535  C   1.06065   1.03213   1.11513   1.11423
 1536  H   0.82483
 1537  H   0.84732
 1538  C   1.04448   0.99035   0.96284   1.06049
 1539  H   0.88003
 1540  C   1.05448   1.16245   1.06837   1.18059
 1541  H   0.83892
 1542  H   0.84796
 1543  H   0.85375
 1544  C   1.05251   1.12327   1.17302   1.10750
 1545  H   0.85713
 1546  H   0.84692
 1547  H   0.84158
 1548  C   1.07857   0.72927   0.86460   0.77465
 1549  O   1.88179   1.57654   1.45162   1.73542
 1550  N   1.54013   1.57246   1.21294   1.19378
 1551  H   0.66035
 1552  C   1.07175   1.02055   0.93486   0.96070
 1553  H   0.81146
 1554  C   1.05670   1.17062   1.07919   0.99261
 1555  H   0.82403
 1556  H   0.82733
 1557  C   1.05682   1.12994   1.08817   1.03621
 1558  H   0.85372
 1559  H   0.82348
 1560  C   1.06367   1.15820   0.94513   0.90226
 1561  H   0.81558
 1562  H   0.83634
 1563  N   1.52411   1.16126   1.42459   1.39828
 1564  H   0.63933
 1565  C   0.99152   0.79145   0.81258   0.81870
 1566  N   1.51735   1.11707   1.46803   1.48670
 1567  H   0.65544
 1568  H   0.63901
 1569  N   1.50861   1.25117   1.39992   1.41122
 1570  H   0.64165
 1571  H   0.64062
 1572  C   1.08197   0.87266   0.77253   0.74570
 1573  O   1.88778   1.60723   1.59818   1.52538
 1574  N   1.53975   1.17467   1.27162   1.51657
 1575  H   0.65734
 1576  C   1.07435   0.85698   1.08603   1.03801
 1577  H   0.82151
 1578  C   1.06140   1.16383   1.09821   0.98424
 1579  H   0.84238
 1580  H   0.83862
 1581  C   1.04756   1.08157   0.95976   0.94841
 1582  H   0.86930
 1583  C   1.05593   1.17132   1.16323   1.07776
 1584  H   0.85395
 1585  H   0.86051
 1586  H   0.84727
 1587  C   1.05677   1.15727   1.09308   1.15824
 1588  H   0.85030
 1589  H   0.86032
 1590  H   0.84718
 1591  C   1.08291   0.71469   0.76153   0.70262
 1592  O   1.88395   1.46781   1.86955   1.62319
 1593  O   1.88760   1.54730   1.59426   1.80317

 **********************
 *                    *
 * JOB ENDED NORMALLY *
 *                    *
 **********************



 TOTAL JOB TIME:            40.43 SECONDS

 == MOPAC DONE ==
