 *******************************************************************************
 **                                                                           **
 **                              MOPAC v23.2.2                                **
 **                                                                           **
 *******************************************************************************
 **          Digital Object Identifier (DOI): 10.5281/zenodo.6511958          **
 **    Visit the DOI location for information on how to cite this program.    **
 *******************************************************************************

                              PM7 CALCULATION RESULTS

 *******************************************************************************
 *  CALCULATION DONE: (MAX THREADS = 12)             Tue Jan 27 16:12:42 2026  *
 *  PM7        - The PM7 Hamiltonian to be used
 *  MOZYME     - USE LOCALIZED M.O.s IN SOLVING THE SCF EQUATIONS
 *
 *
 *
 *                 CHARGE ON SYSTEM = +2
 *
 *
 *
 *  EPS=78.4   - USE ANDREAS KLAMT'S COSMO IMPLICIT SOLVATION MODEL
 *  1SCF       - DO 1 SCF AND THEN STOP 
 *  T=         - A TIME OF 172800.0 SECONDS REQUESTED
 *  DUMP=N     - RESTART FILE WRITTEN EVERY 7200.0 SECONDS REQUESTED
 *******************************************************************************
PM7 1SCF MOZYME CHARGE=2 EPS=78.4


   ATOM   CHEMICAL          X               Y               Z
  NUMBER   SYMBOL      (ANGSTROMS)     (ANGSTROMS)     (ANGSTROMS)

     1       H         71.69100000  *  165.23700000  * -45.36000000  *
     2       C         70.72700000  *  165.64400000  * -45.02500000  *
     3       O         70.67100000  *  166.69300000  * -44.40000000  *
     4       N         69.64800000  *  164.94600000  * -45.35400000  *
     5       H         69.74300000  *  164.08600000  * -45.86500000  *
     6       C         68.31800000  *  165.37700000  * -44.95100000  *
     7       H         68.30400000  *  166.44500000  * -44.75000000  *
     8       C         67.27900000  *  165.08100000  * -46.05800000  *
     9       H         67.27200000  *  164.02200000  * -46.29800000  *
    10       C         65.89200000  *  165.46600000  * -45.59200000  *
    11       H         65.46400000  *  166.22900000  * -46.24500000  *
    12       H         65.23700000  *  164.60600000  * -45.62700000  *
    13       H         65.87600000  *  165.89500000  * -44.58400000  *
    14       C         67.63700000  *  165.85600000  * -47.31700000  *
    15       H         68.59400000  *  165.52900000  * -47.70800000  *
    16       H         66.87900000  *  165.66900000  * -48.07700000  *
    17       H         67.68800000  *  166.92100000  * -47.10100000  *
    18       C         67.91500000  *  164.66400000  * -43.65700000  *
    19       O         67.55300000  *  165.30600000  * -42.67600000  *
    20       N         67.98400000  *  163.33800000  * -43.65800000  *
    21       H         68.28400000  *  162.85200000  * -44.48600000  *
    22       C         67.62300000  *  162.54400000  * -42.48700000  *
    23       H         67.90600000  *  163.07600000  * -41.58100000  *
    24       C         66.12800000  *  162.23500000  * -42.45900000  *
    25       H         65.92600000  *  161.47400000  * -43.20900000  *
    26       H         65.88500000  *  161.80700000  * -41.48800000  *
    27       C         65.21300000  *  163.39800000  * -42.74000000  *
    28       H         65.33100000  *  164.15700000  * -41.96400000  *
    29       H         65.45900000  *  163.81400000  * -43.69700000  *
    30       C         63.76600000  *  162.97200000  * -42.82400000  *
    31       O         63.44700000  *  162.11400000  * -43.67900000  *
    32       O         62.94800000  *  163.49400000  * -42.03400000  *
    33       C         68.34700000  *  161.22200000  * -42.57700000  *
    34       O         68.73000000  *  160.78800000  * -43.66100000  *
    35       N         68.52400000  *  160.57500000  * -41.43500000  *
    36       H         68.03000000  *  160.89100000  * -40.60600000  *
    37       C         69.17300000  *  159.28200000  * -41.42100000  *
    38       H         69.95100000  *  159.22100000  * -42.17800000  *
    39       C         69.75600000  *  159.01000000  * -40.03200000  *
    40       H         70.21900000  *  159.94300000  * -39.71800000  *
    41       H         68.96300000  *  158.79100000  * -39.31600000  *
    42       C         70.79800000  *  157.89600000  * -39.98300000  *
    43       H         70.31100000  *  156.94100000  * -40.17400000  *
    44       H         71.53800000  *  158.07300000  * -40.76900000  *
    45       C         71.50100000  *  157.83200000  * -38.61800000  *
    46       H         70.74900000  *  157.59000000  * -37.86000000  *
    47       H         72.23100000  *  157.01800000  * -38.63800000  *
    48       C         72.18600000  *  159.16200000  * -38.26900000  *
    49       H         72.83200000  *  159.42500000  * -39.10900000  *
    50       H         71.41200000  *  159.93100000  * -38.15600000  *
    51       N         73.00000000  *  159.10500000  * -37.02500000  *
    52       H         73.70000000  *  158.37000000  * -37.07400000  *
    53       H         73.43800000  *  159.98800000  * -36.79300000  *
    54       H         72.39100000  *  158.85400000  * -36.25100000  *
    55       C         68.06200000  *  158.28700000  * -41.74800000  *
    56       O         67.16300000  *  158.08100000  * -40.94600000  *
    57       N         68.04500000  *  157.73100000  * -42.96500000  *
    58       H         68.84900000  *  157.88700000  * -43.55400000  *
    59       C         67.03300000  *  156.74900000  * -43.41300000  *
    60       H         66.05700000  *  157.23700000  * -43.42800000  *
    61       C         67.33600000  *  156.23200000  * -44.84200000  *
    62       H         68.41300000  *  156.12500000  * -44.95400000  *
    63       C         66.69400000  *  154.86900000  * -45.14300000  *
    64       H         65.61800000  *  154.91600000  * -44.97200000  *
    65       H         66.87900000  *  154.60100000  * -46.17500000  *
    66       H         67.13100000  *  154.08100000  * -44.53000000  *
    67       C         66.83200000  *  157.26400000  * -45.86300000  *
    68       H         65.74100000  *  157.25800000  * -45.88700000  *
    69       H         67.14800000  *  158.24100000  * -45.51400000  *
    70       C         67.36700000  *  157.06000000  * -47.28800000  *
    71       H         66.94400000  *  156.16400000  * -47.73500000  *
    72       H         67.09100000  *  157.91100000  * -47.90700000  *
    73       H         68.45100000  *  156.97400000  * -47.27400000  *
    74       C         66.92100000  *  155.59100000  * -42.42400000  *
    75       O         65.82200000  *  155.23000000  * -41.99900000  *
    76       N         68.06400000  *  155.00300000  * -42.07500000  *
    77       H         68.93900000  *  155.35400000  * -42.44700000  *
    78       C         68.10500000  *  153.83300000  * -41.21900000  *
    79       H         67.64100000  *  154.07500000  * -40.26200000  *
    80       H         67.53800000  *  153.02600000  * -41.68600000  *
    81       C         69.51300000  *  153.32900000  * -40.95300000  *
    82       O         70.51200000  *  153.80000000  * -41.50400000  *
    83       N         69.55600000  *  152.33900000  * -40.07700000  *
    84       H         68.67800000  *  151.99000000  * -39.71800000  *
    85       C         70.77000000  *  151.75600000  * -39.53100000  *
    86       H         71.61000000  *  152.42900000  * -39.70500000  *
    87       C         70.57900000  *  151.60200000  * -38.01300000  *
    88       H         69.74100000  *  150.93300000  * -37.81500000  *
    89       H         71.48500000  *  151.17300000  * -37.60600000  *
    90       C         70.34100000  *  152.95100000  * -37.31000000  *
    91       H         71.17500000  *  153.61800000  * -37.54300000  *
    92       H         69.43000000  *  153.41400000  * -37.69800000  *
    93       C         70.19700000  *  152.80200000  * -35.78700000  *
    94       O         69.30400000  *  152.05700000  * -35.32200000  *
    95       O         70.94500000  *  153.47500000  * -35.04000000  *
    96       C         71.03800000  *  150.43800000  * -40.27300000  *
    97       O         70.35000000  *  149.43600000  * -40.06400000  *
    98       N         71.94000000  *  150.48800000  * -41.25900000  *
    99       H         72.53400000  *  151.30500000  * -41.34000000  *
   100       C         72.01600000  *  149.50400000  * -42.34200000  *
   101       H         71.00500000  *  149.22600000  * -42.64200000  *
   102       H         72.49300000  *  149.98200000  * -43.19800000  *
   103       C         72.79000000  *  148.22000000  * -42.02600000  *
   104       O         73.26200000  *  147.98900000  * -40.91400000  *
   105       N         72.95900000  *  147.38700000  * -43.05500000  *
   106       H         72.52000000  *  147.61600000  * -43.93700000  *
   107       C         73.75600000  *  146.14300000  * -43.02600000  *
   108       H         73.42800000  *  145.53200000  * -42.18400000  *
   109       C         73.54900000  *  145.33200000  * -44.31500000  *
   110       H         74.30900000  *  144.55300000  * -44.39000000  *
   111       C         72.17600000  *  144.66900000  * -44.32300000  *
   112       H         71.38800000  *  145.42300000  * -44.33500000  *
   113       H         72.08800000  *  144.03100000  * -45.20200000  *
   114       H         72.08500000  *  144.04000000  * -43.43900000  *
   115       O         73.64200000  *  146.18900000  * -45.42900000  *
   116       H         73.25200000  *  145.71500000  * -46.19900000  *
   117       C         75.25400000  *  146.37300000  * -42.84400000  *
   118       O         75.87300000  *  145.61600000  * -42.10600000  *
   119       N         75.82400000  *  147.40300000  * -43.48500000  *
   120       H         75.22600000  *  147.91400000  * -44.11400000  *
   121       C         77.27700000  *  147.66700000  * -43.54900000  *
   122       H         77.77900000  *  147.08800000  * -42.77400000  *
   123       C         77.82500000  *  147.19600000  * -44.91200000  *
   124       H         77.47100000  *  147.88200000  * -45.68100000  *
   125       H         78.91500000  *  147.26000000  * -44.89600000  *
   126       C         77.46000000  *  145.78000000  * -45.30900000  *
   127       C         77.73900000  *  144.71500000  * -44.43300000  *
   128       H         78.21800000  *  144.90300000  * -43.48100000  *
   129       C         77.37200000  *  143.40600000  * -44.78200000  *
   130       H         77.56800000  *  142.59700000  * -44.09900000  *
   131       C         76.75500000  *  143.14900000  * -46.02300000  *
   132       O         76.47600000  *  141.87000000  * -46.37800000  *
   133       H         77.08600000  *  141.27900000  * -45.90700000  *
   134       C         76.47300000  *  144.21600000  * -46.90100000  *
   135       H         75.98500000  *  144.02700000  * -47.84200000  *
   136       C         76.83300000  *  145.52800000  * -46.54500000  *
   137       H         76.62500000  *  146.34200000  * -47.22400000  *
   138       C         77.66900000  *  149.13700000  * -43.30400000  *
   139       O         78.77800000  *  149.54700000  * -43.64900000  *
   140       N         76.77400000  *  149.94700000  * -42.73200000  *
   141       H         75.89200000  *  149.56400000  * -42.42400000  *
   142       C         76.99900000  *  151.37400000  * -42.48300000  *
   143       H         77.58500000  *  151.49800000  * -41.57400000  *
   144       H         77.57100000  *  151.78900000  * -43.30300000  *
   145       C         75.69600000  *  152.16200000  * -42.33100000  *
   146       O         74.63800000  *  151.56700000  * -42.10900000  *
   147       N         75.75500000  *  153.49500000  * -42.44900000  *
   148       H         76.58800000  *  153.89400000  * -42.85900000  *
   149       C         74.59200000  *  154.32600000  * -42.21200000  *
   150       H         73.82600000  *  153.78000000  * -41.65800000  *
   151       C         74.95900000  *  155.54800000  * -41.37000000  *
   152       H         75.70700000  *  156.13900000  * -41.89300000  *
   153       C         73.73100000  *  156.40900000  * -41.13300000  *
   154       H         72.94300000  *  155.80300000  * -40.68200000  *
   155       H         73.98600000  *  157.21200000  * -40.45000000  *
   156       H         73.36800000  *  156.84900000  * -42.06500000  *
   157       C         75.54500000  *  155.09600000  * -40.05300000  *
   158       H         76.46000000  *  154.52800000  * -40.19800000  *
   159       H         75.77700000  *  155.95300000  * -39.42300000  *
   160       H         74.80500000  *  154.48400000  * -39.53200000  *
   161       C         74.01900000  *  154.79200000  * -43.53700000  *
   162       O         74.76100000  *  155.18400000  * -44.43700000  *
   163       N         72.69800000  *  154.65300000  * -43.67500000  *
   164       H         72.16500000  *  154.32400000  * -42.87600000  *
   165       C         71.92100000  *  155.09500000  * -44.83800000  *
   166       H         72.58500000  *  155.16000000  * -45.69700000  *
   167       C         70.78600000  *  154.10500000  * -45.18700000  *
   168       H         69.94200000  *  154.27100000  * -44.51800000  *
   169       C         70.31700000  *  154.34400000  * -46.62800000  *
   170       H         71.12200000  *  154.12200000  * -47.32900000  *
   171       H         69.46500000  *  153.70000000  * -46.85000000  *
   172       H         70.01300000  *  155.38100000  * -46.75900000  *
   173       C         71.18700000  *  152.62900000  * -45.04800000  *
   174       H         72.10000000  *  152.43300000  * -45.60500000  *
   175       H         71.34400000  *  152.38400000  * -43.99700000  *
   176       H         70.38500000  *  151.99200000  * -45.42500000  *
   177       C         71.34400000  *  156.48000000  * -44.54800000  *
   178       O         70.60300000  *  156.62700000  * -43.57200000  *
   179       N         71.62500000  *  157.49000000  * -45.37400000  *
   180       H         72.23900000  *  157.32200000  * -46.16900000  *
   181       C         71.01800000  *  158.79600000  * -45.21900000  *
   182       H         70.37900000  *  158.84300000  * -44.33800000  *
   183       C         72.10000000  *  159.86100000  * -45.06900000  *
   184       H         72.79900000  *  159.78100000  * -45.90500000  *
   185       H         71.63400000  *  160.84400000  * -45.14300000  *
   186       C         72.87100000  *  159.84300000  * -43.76800000  *
   187       C         72.34700000  *  160.43100000  * -42.61900000  *
   188       H         71.37700000  *  160.90600000  * -42.66800000  *
   189       C         73.06400000  *  160.45200000  * -41.42500000  *
   190       H         72.63300000  *  160.94600000  * -40.56800000  *
   191       C         74.33000000  *  159.87400000  * -41.37100000  *
   192       O         75.04700000  *  159.90100000  * -40.18700000  *
   193       H         74.69700000  *  160.54100000  * -39.56800000  *
   194       C         74.87500000  *  159.27800000  * -42.50300000  *
   195       H         75.78500000  *  158.71900000  * -42.41900000  *
   196       C         74.14000000  *  159.26700000  * -43.69600000  *
   197       H         74.51800000  *  158.73300000  * -44.56500000  *
   198       C         70.16700000  *  159.17400000  * -46.42900000  *
   199       O         70.41800000  *  158.72400000  * -47.55600000  *
   200       N         69.03200000  *  159.83700000  * -46.21300000  *
   201       H         68.84600000  *  160.14500000  * -45.26500000  *
   202       C         68.29500000  *  160.51300000  * -47.28200000  *
   203       H         68.28600000  *  159.91200000  * -48.19300000  *
   204       C         66.85000000  *  160.83900000  * -46.85000000  *
   205       H         66.33000000  *  159.91900000  * -46.59700000  *
   206       H         66.86700000  *  161.47400000  * -45.96100000  *
   207       C         66.04300000  *  161.53400000  * -47.95900000  *
   208       H         66.51900000  *  162.47800000  * -48.22900000  *
   209       H         66.01700000  *  160.88900000  * -48.83800000  *
   210       C         64.60900000  *  161.81300000  * -47.48300000  *
   211       H         64.14900000  *  160.87900000  * -47.15400000  *
   212       H         64.64200000  *  162.50200000  * -46.63800000  *
   213       C         63.76800000  *  162.41900000  * -48.61500000  *
   214       H         64.29200000  *  163.29600000  * -49.01000000  *
   215       H         63.69100000  *  161.68000000  * -49.42100000  *
   216       N         62.41100000  *  162.81000000  * -48.14800000  *
   217       H         62.45900000  *  163.51500000  * -47.42600000  *
   218       H         61.86100000  *  163.19700000  * -48.90300000  *
   219       H         61.90400000  *  162.02200000  * -47.77200000  *
   220       C         69.10200000  *  161.76800000  * -47.51000000  *
   221       O         69.33200000  *  162.50200000  * -46.55200000  *
   222       N         69.55500000  *  162.00600000  * -48.72500000  *
   223       H         69.34400000  *  161.34200000  * -49.46700000  *
   224       C         70.34900000  *  163.18200000  * -49.01700000  *
   225       H         70.22500000  *  163.93500000  * -48.24000000  *
   226       C         71.81400000  *  162.79200000  * -49.07000000  *
   227       H         71.97800000  *  162.06700000  * -49.86400000  *
   228       H         72.42900000  *  163.67700000  * -49.23900000  *
   229       H         72.10500000  *  162.33200000  * -48.12600000  *
   230       C         69.94400000  *  163.83800000  * -50.32200000  *
   231       O         69.22100000  *  163.25100000  * -51.12800000  *
   232       N         70.40700000  *  165.06400000  * -50.52400000  *
   233       H         70.93200000  *  165.53000000  * -49.79600000  *
   234       C         70.10800000  *  165.77900000  * -51.74600000  *
   235       H         69.54100000  *  165.15900000  * -52.44400000  *
   236       H         69.52200000  *  166.69100000  * -51.53000000  *
   237       H         71.05900000  *  166.04700000  * -52.23900000  *
   238       H         68.08600000  *  164.80700000  * -56.55000000  *
   239       C         68.21200000  *  164.39600000  * -55.53600000  *
   240       O         69.28600000  *  164.50800000  * -54.94200000  *
   241       N         67.13500000  *  163.82300000  * -55.01100000  *
   242       H         66.34000000  *  163.66800000  * -55.61500000  *
   243       C         67.13600000  *  163.21200000  * -53.68800000  *
   244       H         67.86300000  *  163.70700000  * -53.05000000  *
   245       C         65.75500000  *  163.32300000  * -53.02900000  *
   246       H         64.97700000  *  163.06900000  * -53.75000000  *
   247       C         65.64800000  *  162.36600000  * -51.85200000  *
   248       H         66.47200000  *  162.51800000  * -51.15200000  *
   249       H         64.69700000  *  162.53800000  * -51.34700000  *
   250       H         65.65200000  *  161.33900000  * -52.20000000  *
   251       C         65.54000000  *  164.75000000  * -52.56600000  *
   252       H         65.62600000  *  165.42400000  * -53.41600000  *
   253       H         64.53500000  *  164.85100000  * -52.15900000  *
   254       H         66.28400000  *  165.00300000  * -51.81000000  *
   255       C         67.52600000  *  161.76000000  * -53.84700000  *
   256       O         66.97900000  *  161.02800000  * -54.68200000  *
   257       N         68.49600000  *  161.34900000  * -53.04800000  *
   258       H         68.91100000  *  161.99700000  * -52.39100000  *
   259       C         69.01100000  *  159.99200000  * -53.10200000  *
   260       H         68.34600000  *  159.34100000  * -53.67900000  *
   261       C         70.37400000  *  159.97400000  * -53.81600000  *
   262       H         70.77500000  *  158.96500000  * -53.87500000  *
   263       C         70.21400000  *  160.50700000  * -55.21300000  *
   264       H         69.95700000  *  161.56600000  * -55.19000000  *
   265       H         71.15100000  *  160.39100000  * -55.75600000  *
   266       H         69.44200000  *  159.95000000  * -55.73600000  *
   267       C         71.37900000  *  160.85000000  * -53.05700000  *
   268       H         71.56500000  *  160.44500000  * -52.06400000  *
   269       H         72.31500000  *  160.84900000  * -53.61300000  *
   270       H         71.03600000  *  161.88400000  * -52.98400000  *
   271       C         69.19200000  *  159.37200000  * -51.72900000  *
   272       O         69.02000000  *  160.03600000  * -50.68600000  *
   273       N         69.38100000  *  158.05800000  * -51.70300000  *
   274       H         69.45600000  *  157.56500000  * -52.58800000  *
   275       C         69.75900000  *  157.32300000  * -50.51200000  *
   276       H         69.47900000  *  157.88600000  * -49.62300000  *
   277       C         69.00300000  *  156.00200000  * -50.47500000  *
   278       H         69.23300000  *  155.42800000  * -51.37000000  *
   279       H         69.29500000  *  155.43100000  * -49.59200000  *
   280       H         67.93400000  *  156.20300000  * -50.43300000  *
   281       C         71.27600000  *  157.14300000  * -50.53900000  *
   282       O         71.81000000  *  156.46500000  * -51.42300000  *
   283       N         71.97000000  *  157.79100000  * -49.60300000  *
   284       H         71.44500000  *  158.28300000  * -48.88900000  *
   285       C         73.41300000  *  157.73400000  * -49.53500000  *
   286       H         73.80300000  *  157.43200000  * -50.50200000  *
   287       C         73.96100000  *  159.11400000  * -49.18200000  *
   288       H         73.49200000  *  159.84000000  * -49.85100000  *
   289       H         73.62800000  *  159.35800000  * -48.16900000  *
   290       C         75.47300000  *  159.31600000  * -49.26600000  *
   291       H         75.96900000  *  158.63700000  * -48.57100000  *
   292       C         75.94900000  *  159.02000000  * -50.68400000  *
   293       H         75.44100000  *  159.71800000  * -51.34800000  *
   294       H         77.02400000  *  159.18800000  * -50.76300000  *
   295       H         75.74700000  *  157.98700000  * -50.96800000  *
   296       C         75.80400000  *  160.74000000  * -48.87900000  *
   297       H         75.43700000  *  160.94600000  * -47.87600000  *
   298       H         76.88200000  *  160.87900000  * -48.92200000  *
   299       H         75.32000000  *  161.42900000  * -49.57600000  *
   300       C         73.82100000  *  156.71600000  * -48.48500000  *
   301       O         73.39600000  *  156.78100000  * -47.33400000  *
   302       N         74.65800000  *  155.76200000  * -48.88300000  *
   303       H         74.90300000  *  155.74300000  * -49.87100000  *
   304       C         75.12600000  *  154.64200000  * -48.05900000  *
   305       H         74.60100000  *  154.63300000  * -47.10200000  *
   306       C         74.80900000  *  153.34400000  * -48.83800000  *
   307       H         74.18400000  *  153.58300000  * -49.70100000  *
   308       H         75.72800000  *  152.90800000  * -49.22600000  *
   309       C         74.05800000  *  152.26000000  * -48.06000000  *
   310       H         73.19500000  *  152.70200000  * -47.56500000  *
   311       H         73.68700000  *  151.54800000  * -48.79700000  *
   312       C         74.94600000  *  151.52900000  * -47.03800000  *
   313       H         75.95100000  *  151.41000000  * -47.43900000  *
   314       H         75.01800000  *  152.14300000  * -46.13600000  *
   315       C         74.38100000  *  150.14400000  * -46.66900000  *
   316       H         74.93300000  *  149.77100000  * -45.79900000  *
   317       H         73.34000000  *  150.27900000  * -46.35500000  *
   318       N         74.47700000  *  149.16200000  * -47.79700000  *
   319       H         75.43300000  *  148.88900000  * -47.99100000  *
   320       H         73.93500000  *  148.30200000  * -47.62300000  *
   321       H         74.08300000  *  149.53400000  * -48.65400000  *
   322       C         76.62200000  *  154.82900000  * -47.79200000  *
   323       O         77.41700000  *  154.63600000  * -48.70400000  *
   324       N         77.01700000  *  155.22600000  * -46.58100000  *
   325       H         76.29800000  *  155.26800000  * -45.86500000  *
   326       C         78.42200000  *  155.28900000  * -46.15900000  *
   327       H         79.06600000  *  155.59300000  * -46.98900000  *
   328       C         78.56700000  *  156.26000000  * -44.97900000  *
   329       H         78.02700000  *  155.87500000  * -44.10900000  *
   330       H         79.62500000  *  156.33900000  * -44.73000000  *
   331       C         78.01500000  *  157.64300000  * -45.34000000  *
   332       H         78.45100000  *  157.95800000  * -46.27300000  *
   333       H         76.93600000  *  157.57500000  * -45.50000000  *
   334       C         78.25100000  *  158.72500000  * -44.27900000  *
   335       H         77.97800000  *  159.68000000  * -44.73200000  *
   336       H         77.56000000  *  158.53300000  * -43.46900000  *
   337       C         79.67700000  *  158.85000000  * -43.70900000  *
   338       H         80.38400000  *  158.36300000  * -44.39700000  *
   339       H         79.95000000  *  159.91100000  * -43.68600000  *
   340       N         79.78800000  *  158.26900000  * -42.33500000  *
   341       H         79.63700000  *  157.26100000  * -42.37000000  *
   342       H         80.69600000  *  158.42600000  * -41.93200000  *
   343       H         79.10400000  *  158.64600000  * -41.70100000  *
   344       C         78.82300000  *  153.89100000  * -45.72900000  *
   345       O         78.09100000  *  153.31500000  * -44.93700000  *
   346       N         79.90700000  *  153.32000000  * -46.24700000  *
   347       H         80.40500000  *  153.76400000  * -47.01000000  *
   348       C         80.34300000  *  152.02200000  * -45.76800000  *
   349       H         79.49500000  *  151.49800000  * -45.35900000  *
   350       C         80.94400000  *  151.18600000  * -46.89500000  *
   351       H         81.78600000  *  151.78200000  * -47.16900000  *
   352       C         81.42400000  *  149.85200000  * -46.34500000  *
   353       H         80.65600000  *  149.35200000  * -45.75200000  *
   354       H         81.67900000  *  149.19900000  * -47.17900000  *
   355       H         82.34500000  *  149.95700000  * -45.76100000  *
   356       C         79.89700000  *  150.97600000  * -47.99700000  *
   357       H         79.60200000  *  151.87000000  * -48.50000000  *
   358       H         80.28300000  *  150.30500000  * -48.75000000  *
   359       C         78.59100000  *  150.36100000  * -47.52600000  *
   360       H         78.17700000  *  150.90100000  * -46.69000000  *
   361       H         77.89400000  *  150.33700000  * -48.36300000  *
   362       H         78.77100000  *  149.33300000  * -47.20900000  *
   363       C         81.33300000  *  152.07100000  * -44.61400000  *
   364       O         82.16700000  *  152.98000000  * -44.51900000  *
   365       N         81.21100000  *  151.07100000  * -43.74300000  *
   366       H         80.50300000  *  150.36100000  * -43.92800000  *
   367       C         82.04400000  *  150.90200000  * -42.55200000  *
   368       H         81.47500000  *  151.18100000  * -41.66300000  *
   369       H         82.35800000  *  149.86100000  * -42.45900000  *
   370       H         82.94700000  *  151.51400000  * -42.62000000  *
   371       H         81.25700000  *  144.04600000  * -57.89900000  *
   372       C         80.50000000  *  144.84100000  * -57.88800000  *
   373       O         79.71500000  *  144.99000000  * -58.82400000  *
   374       N         80.49900000  *  145.60300000  * -56.79700000  *
   375       H         81.28000000  *  145.52500000  * -56.16600000  *
   376       C         79.57000000  *  146.70600000  * -56.61200000  *
   377       H         78.57500000  *  146.34400000  * -56.42300000  *
   378       C         80.00500000  *  147.61000000  * -55.44200000  *
   379       H         80.89800000  *  148.18000000  * -55.68500000  *
   380       C         78.90600000  *  148.60800000  * -55.12500000  *
   381       H         77.92000000  *  148.14100000  * -55.17600000  *
   382       H         79.04500000  *  148.98700000  * -54.11600000  *
   383       H         78.93800000  *  149.43600000  * -55.83300000  *
   384       C         80.32100000  *  146.76200000  * -54.20900000  *
   385       H         81.19200000  *  146.13400000  * -54.40600000  *
   386       H         80.59400000  *  147.42200000  * -53.38900000  *
   387       C         79.18400000  *  145.87900000  * -53.76500000  *
   388       H         78.77800000  *  145.31100000  * -54.59400000  *
   389       H         79.50900000  *  145.12200000  * -53.06500000  *
   390       H         78.38800000  *  146.48300000  * -53.33500000  *
   391       C         79.54300000  *  147.54500000  * -57.87900000  *
   392       O         78.48200000  *  147.77900000  * -58.45100000  *
   393       N         80.72300000  *  147.98900000  * -58.30900000  *
   394       H         81.55800000  *  147.70100000  * -57.81200000  *
   395       C         80.85900000  *  148.80400000  * -59.51100000  *
   396       H         80.33900000  *  149.74600000  * -59.38600000  *
   397       H         81.92800000  *  148.98500000  * -59.72900000  *
   398       H         80.37800000  *  148.32200000  * -60.38100000  *
   399       H         78.96400000  *  146.08700000  * -61.65600000  *
   400       C         77.87300000  *  146.08700000  * -61.51600000  *
   401       O         77.11500000  *  145.89500000  * -62.46400000  *
   402       N         77.44600000  *  146.31800000  * -60.28000000  *
   403       H         78.13400000  *  146.42500000  * -59.54900000  *
   404       C         76.02800000  *  146.35200000  * -59.94500000  *
   405       H         75.53300000  *  145.47600000  * -60.35900000  *
   406       C         75.84100000  *  146.37400000  * -58.43100000  *
   407       H         76.20500000  *  147.30400000  * -58.01800000  *
   408       H         74.76300000  *  146.35700000  * -58.24200000  *
   409       C         76.47200000  *  145.22200000  * -57.65900000  *
   410       H         77.55000000  *  145.23900000  * -57.74900000  *
   411       C         76.08000000  *  145.34100000  * -56.19200000  *
   412       H         74.99900000  *  145.23000000  * -56.07700000  *
   413       H         76.57300000  *  144.55300000  * -55.62900000  *
   414       H         76.38500000  *  146.30900000  * -55.80100000  *
   415       C         75.99600000  *  143.89000000  * -58.23600000  *
   416       H         76.41500000  *  143.73000000  * -59.22900000  *
   417       H         76.32800000  *  143.07800000  * -57.59100000  *
   418       H         74.90500000  *  143.87400000  * -58.30500000  *
   419       C         75.32200000  *  147.55900000  * -60.54800000  *
   420       O         74.09500000  *  147.56800000  * -60.66200000  *
   421       N         76.08400000  *  148.63100000  * -60.82900000  *
   422       H         77.08200000  *  148.53500000  * -60.67700000  *
   423       C         75.60100000  *  149.83300000  * -61.53400000  *
   424       H         74.83700000  *  150.33500000  * -60.94100000  *
   425       H         76.43800000  *  150.53300000  * -61.75900000  *
   426       H         75.13800000  *  149.54900000  * -62.49200000  *
   427       H         62.79000000  *  145.77200000  * -59.27600000  *
   428       C         63.71000000  *  145.72000000  * -58.67500000  *
   429       O         63.77900000  *  145.02200000  * -57.66400000  *
   430       N         64.72400000  *  146.45200000  * -59.11400000  *
   431       H         64.63800000  *  147.05100000  * -59.92700000  *
   432       C         65.97100000  *  146.53500000  * -58.38100000  *
   433       H         65.88400000  *  146.09200000  * -57.38600000  *
   434       C         67.11600000  *  145.87700000  * -59.11400000  *
   435       H         67.33600000  *  146.42600000  * -60.03000000  *
   436       C         68.35100000  *  145.87800000  * -58.21400000  *
   437       H         68.14700000  *  145.31400000  * -57.31800000  *
   438       H         69.21000000  *  145.44500000  * -58.72400000  *
   439       H         68.64100000  *  146.89000000  * -57.94500000  *
   440       C         66.72800000  *  144.44400000  * -59.47800000  *
   441       H         66.54900000  *  143.87300000  * -58.56400000  *
   442       H         65.81500000  *  144.42400000  * -60.06800000  *
   443       C         67.77400000  *  143.72700000  * -60.29600000  *
   444       H         68.68300000  *  143.57700000  * -59.72200000  *
   445       H         67.37700000  *  142.75300000  * -60.59800000  *
   446       H         68.02300000  *  144.31300000  * -61.18000000  *
   447       C         66.29500000  *  148.01000000  * -58.22000000  *
   448       O         66.21200000  *  148.78000000  * -59.18400000  *
   449       N         66.55100000  *  148.43900000  * -56.98200000  *
   450       H         66.62100000  *  147.75700000  * -56.23200000  *
   451       C         66.89200000  *  149.83400000  * -56.68500000  *
   452       H         66.07600000  *  150.48100000  * -57.01000000  *
   453       C         67.10300000  *  150.03800000  * -55.17900000  *
   454       H         67.89600000  *  149.37300000  * -54.83400000  *
   455       C         67.49200000  *  151.47800000  * -54.83600000  *
   456       H         66.67200000  *  152.16100000  * -55.05800000  *
   457       H         67.73000000  *  151.52400000  * -53.77600000  *
   458       H         68.37100000  *  151.78900000  * -55.39500000  *
   459       C         65.82200000  *  149.72200000  * -54.40500000  *
   460       H         65.54100000  *  148.67900000  * -54.52700000  *
   461       H         66.00600000  *  149.89800000  * -53.35200000  *
   462       H         65.00800000  *  150.35500000  * -54.74900000  *
   463       C         68.15100000  *  150.21100000  * -57.45900000  *
   464       O         69.17900000  *  149.53800000  * -57.34200000  *
   465       N         68.08000000  *  151.28300000  * -58.25100000  *
   466       H         67.22500000  *  151.80400000  * -58.24500000  *
   467       C         69.18900000  *  151.69800000  * -59.08000000  *
   468       H         69.52500000  *  150.81900000  * -59.63900000  *
   469       C         68.73700000  *  152.76800000  * -60.08300000  *
   470       H         67.83400000  *  152.41100000  * -60.57900000  *
   471       H         68.47700000  *  153.68100000  * -59.53700000  *
   472       C         69.79100000  *  153.06900000  * -61.13100000  *
   473       H         70.72100000  *  153.35000000  * -60.64200000  *
   474       H         69.97400000  *  152.16800000  * -61.71600000  *
   475       C         69.35100000  *  154.17900000  * -62.08100000  *
   476       H         68.50200000  *  153.81400000  * -62.66100000  *
   477       H         69.02300000  *  155.05600000  * -61.52200000  *
   478       C         70.49800000  *  154.55900000  * -63.02400000  *
   479       H         71.33900000  *  154.89000000  * -62.40800000  *
   480       H         70.81900000  *  153.66100000  * -63.56600000  *
   481       N         70.11800000  *  155.62600000  * -63.99700000  *
   482       H         69.74700000  *  156.41600000  * -63.48300000  *
   483       H         70.92600000  *  155.93300000  * -64.52500000  *
   484       H         69.41500000  *  155.27800000  * -64.63600000  *
   485       C         70.36000000  *  152.21400000  * -58.25300000  *
   486       O         70.19400000  *  153.07400000  * -57.38700000  *
   487       N         71.53700000  *  151.64500000  * -58.50700000  *
   488       H         71.59600000  *  150.90400000  * -59.18600000  *
   489       C         72.75000000  *  152.07400000  * -57.83600000  *
   490       H         72.53800000  *  152.52600000  * -56.87100000  *
   491       C         73.72700000  *  150.91100000  * -57.67000000  *
   492       H         73.31500000  *  150.22100000  * -56.93700000  *
   493       H         73.77900000  *  150.36900000  * -58.62000000  *
   494       C         75.16700000  *  151.27300000  * -57.28800000  *
   495       H         75.65500000  *  151.80300000  * -58.10000000  *
   496       C         75.18300000  *  152.16500000  * -56.05900000  *
   497       H         74.60800000  *  151.72100000  * -55.25200000  *
   498       H         76.21000000  *  152.29600000  * -55.73500000  *
   499       H         74.78900000  *  153.14000000  * -56.31200000  *
   500       C         75.93300000  *  149.99400000  * -57.01300000  *
   501       H         75.98300000  *  149.42100000  * -57.93300000  *
   502       H         76.94600000  *  150.24200000  * -56.71200000  *
   503       H         75.43500000  *  149.41000000  * -56.23200000  *
   504       C         73.31900000  *  153.11300000  * -58.79500000  *
   505       O         73.76900000  *  152.77900000  * -59.89700000  *
   506       N         73.26700000  *  154.36900000  * -58.37800000  *
   507       H         72.92600000  *  154.57000000  * -57.44900000  *
   508       C         73.73400000  *  155.46600000  * -59.19700000  *
   509       H         73.47500000  *  155.26500000  * -60.23600000  *
   510       C         73.02500000  *  156.74200000  * -58.76000000  *
   511       H         73.45000000  *  157.06300000  * -57.80900000  *
   512       H         73.23600000  *  157.53300000  * -59.48700000  *
   513       C         71.51300000  *  156.60300000  * -58.58700000  *
   514       H         71.27400000  *  155.80900000  * -57.88500000  *
   515       C         70.97400000  *  157.88000000  * -58.01900000  *
   516       H         71.37000000  *  158.74600000  * -58.56000000  *
   517       H         69.88800000  *  157.89100000  * -58.09300000  *
   518       H         71.22100000  *  157.96000000  * -56.96600000  *
   519       C         70.85100000  *  156.29000000  * -59.92300000  *
   520       H         71.28300000  *  155.39700000  * -60.34200000  *
   521       H         69.78900000  *  156.14400000  * -59.75100000  *
   522       H         71.00300000  *  157.12700000  * -60.60700000  *
   523       C         75.24500000  *  155.67800000  * -59.15800000  *
   524       O         75.83900000  *  156.04700000  * -60.17600000  *
   525       N         75.86200000  *  155.44600000  * -57.99600000  *
   526       H         75.29500000  *  155.17900000  * -57.20400000  *
   527       C         77.30800000  *  155.64700000  * -57.82900000  *
   528       H         77.80800000  *  155.40400000  * -58.76600000  *
   529       C         77.60000000  *  157.11700000  * -57.51900000  *
   530       H         76.91700000  *  157.54400000  * -56.80300000  *
   531       H         78.58200000  *  157.17000000  * -57.04800000  *
   532       C         77.65600000  *  157.97500000  * -58.75600000  *
   533       O         78.67800000  *  157.91700000  * -59.48300000  *
   534       O         76.67400000  *  158.70400000  * -59.00000000  *
   535       C         77.97900000  *  154.81700000  * -56.73400000  *
   536       O         77.37100000  *  154.52100000  * -55.70400000  *
   537       N         79.24700000  *  154.47700000  * -56.96600000  *
   538       H         79.69800000  *  154.82400000  * -57.79800000  *
   539       C         80.06100000  *  153.73800000  * -56.00300000  *
   540       H         79.55400000  *  153.69900000  * -55.05200000  *
   541       C         80.36600000  *  152.29800000  * -56.50400000  *
   542       H         79.42700000  *  151.75200000  * -56.56200000  *
   543       C         80.98100000  *  152.34300000  * -57.88400000  *
   544       H         82.06600000  *  152.43300000  * -57.82100000  *
   545       H         80.74600000  *  151.41400000  * -58.37900000  *
   546       H         80.59600000  *  153.14500000  * -58.51000000  *
   547       C         81.29900000  *  151.58800000  * -55.53900000  *
   548       H         80.81100000  *  151.54900000  * -54.57200000  *
   549       H         81.47300000  *  150.57200000  * -55.87800000  *
   550       H         82.25900000  *  152.09200000  * -55.44900000  *
   551       C         81.36500000  *  154.53600000  * -55.81000000  *
   552       O         82.27000000  *  154.48900000  * -56.64700000  *
   553       N         81.45200000  *  155.28200000  * -54.71000000  *
   554       H         80.67600000  *  155.30400000  * -54.06400000  *
   555       C         82.62100000  *  156.11100000  * -54.44300000  *
   556       H         83.20500000  *  156.21800000  * -55.35800000  *
   557       H         82.32200000  *  157.12800000  * -54.14500000  *
   558       H         83.29700000  *  155.73900000  * -53.65600000  *
   559       H         84.58000000  *  155.17100000  * -47.07300000  *
   560       C         84.22500000  *  154.98400000  * -48.09100000  *
   561       O         84.63900000  *  155.65900000  * -49.04200000  *
   562       N         83.35800000  *  153.99100000  * -48.22200000  *
   563       H         83.13600000  *  153.42800000  * -47.41700000  *
   564       C         82.77600000  *  153.65100000  * -49.50600000  *
   565       H         83.37000000  *  154.04700000  * -50.31700000  *
   566       C         82.71900000  *  152.14000000  * -49.66000000  *
   567       H         83.74000000  *  151.87500000  * -49.95700000  *
   568       H         82.64400000  *  151.54600000  * -48.78400000  *
   569       C         81.82600000  *  151.61900000  * -50.77900000  *
   570       H         80.79100000  *  151.88400000  * -50.58700000  *
   571       C         82.25800000  *  152.23100000  * -52.09200000  *
   572       H         83.31100000  *  152.49100000  * -52.08900000  *
   573       H         82.09300000  *  151.51300000  * -52.88400000  *
   574       H         81.65400000  *  153.10900000  * -52.31200000  *
   575       C         81.89900000  *  150.09400000  * -50.82200000  *
   576       H         81.91300000  *  149.66400000  * -49.82700000  *
   577       H         81.05200000  *  149.70600000  * -51.39100000  *
   578       H         82.82500000  *  149.80300000  * -51.32100000  *
   579       C         81.36700000  *  154.23200000  * -49.54800000  *
   580       O         80.51800000  *  153.85700000  * -48.74500000  *
   581       N         81.13100000  *  155.16100000  * -50.46700000  *
   582       H         81.84500000  *  155.34800000  * -51.16200000  *
   583       C         79.82200000  *  155.78100000  * -50.60800000  *
   584       H         79.27400000  *  155.67000000  * -49.68700000  *
   585       C         79.96700000  *  157.27800000  * -50.86800000  *
   586       H         80.42300000  *  157.50400000  * -51.79700000  *
   587       H         78.95400000  *  157.66400000  * -50.98900000  *
   588       C         80.57600000  *  158.04300000  * -49.72300000  *
   589       C         79.79300000  *  158.48000000  * -48.65600000  *
   590       H         78.73500000  *  158.25400000  * -48.66900000  *
   591       C         80.35600000  *  159.18600000  * -47.59400000  *
   592       H         79.75300000  *  159.56200000  * -46.79700000  *
   593       C         81.71600000  *  159.45200000  * -47.58700000  *
   594       O         82.27600000  *  160.12500000  * -46.52100000  *
   595       H         83.20600000  *  160.30800000  * -46.74500000  *
   596       C         82.51400000  *  159.02600000  * -48.63700000  *
   597       H         83.58200000  *  159.23300000  * -48.65000000  *
   598       C         81.94100000  *  158.32800000  * -49.69800000  *
   599       H         82.57400000  *  157.98100000  * -50.50200000  *
   600       C         79.04800000  *  155.15800000  * -51.76500000  *
   601       O         79.54400000  *  155.08000000  * -52.88800000  *
   602       N         77.86400000  *  154.61600000  * -51.49500000  *
   603       H         77.53800000  *  154.63400000  * -50.53400000  *
   604       C         76.98300000  *  154.05600000  * -52.51900000  *
   605       H         77.51000000  *  154.01300000  * -53.46500000  *
   606       C         76.54500000  *  152.62000000  * -52.18400000  *
   607       H         75.84200000  *  152.65400000  * -51.36100000  *
   608       H         76.01100000  *  152.22600000  * -53.05000000  *
   609       C         77.67600000  *  151.64400000  * -51.82100000  *
   610       H         78.17500000  *  151.97700000  * -50.91000000  *
   611       C         77.10500000  *  150.24800000  * -51.57900000  *
   612       H         76.63100000  *  149.87200000  * -52.48700000  *
   613       H         77.90600000  *  149.56700000  * -51.28700000  *
   614       H         76.36900000  *  150.28500000  * -50.77800000  *
   615       C         78.70000000  *  151.53800000  * -52.94300000  *
   616       H         79.21900000  *  152.48700000  * -53.05500000  *
   617       H         79.43500000  *  150.77600000  * -52.69500000  *
   618       H         78.20300000  *  151.28300000  * -53.88000000  *
   619       C         75.78800000  *  154.98600000  * -52.67300000  *
   620       O         75.10500000  *  155.25800000  * -51.68100000  *
   621       N         75.54700000  *  155.50800000  * -53.87800000  *
   622       H         76.14500000  *  155.25500000  * -54.66000000  *
   623       C         74.40900000  *  156.37500000  * -54.09400000  *
   624       H         73.97600000  *  156.70200000  * -53.15000000  *
   625       C         74.83400000  *  157.63700000  * -54.81800000  *
   626       H         75.25500000  *  157.34500000  * -55.76600000  *
   627       C         73.61400000  *  158.52200000  * -55.10900000  *
   628       H         73.11700000  *  158.76900000  * -54.17500000  *
   629       H         73.94100000  *  159.43100000  * -55.61500000  *
   630       H         72.91600000  *  158.00900000  * -55.76200000  *
   631       C         75.84000000  *  158.38200000  * -53.94900000  *
   632       H         75.28100000  *  158.78400000  * -53.13000000  *
   633       H         76.65600000  *  157.75800000  * -53.60500000  *
   634       H         76.26100000  *  159.20400000  * -54.52500000  *
   635       C         73.31400000  *  155.64400000  * -54.85300000  *
   636       O         73.49500000  *  155.22100000  * -55.99400000  *
   637       N         72.20300000  *  155.39500000  * -54.16500000  *
   638       H         72.13300000  *  155.74800000  * -53.21500000  *
   639       C         71.02200000  *  154.73100000  * -54.71100000  *
   640       H         71.27500000  *  154.26700000  * -55.66000000  *
   641       C         70.55400000  *  153.63700000  * -53.74800000  *
   642       H         70.39700000  *  154.07600000  * -52.76300000  *
   643       H         69.58800000  *  153.27300000  * -54.09100000  *
   644       C         71.48900000  *  152.45000000  * -53.61100000  *
   645       C         71.37300000  *  151.35500000  * -54.49100000  *
   646       H         70.64300000  *  151.37200000  * -55.28600000  *
   647       C         72.19900000  *  150.22800000  * -54.33200000  *
   648       H         72.09800000  *  149.38400000  * -55.00200000  *
   649       C         73.15000000  *  150.19400000  * -53.29800000  *
   650       H         73.78400000  *  149.32500000  * -53.17500000  *
   651       C         73.27100000  *  151.28700000  * -52.42300000  *
   652       H         73.99300000  *  151.25200000  * -51.62100000  *
   653       C         72.44700000  *  152.41600000  * -52.58000000  *
   654       H         72.54100000  *  153.25200000  * -51.90100000  *
   655       C         69.89900000  *  155.74300000  * -54.95400000  *
   656       O         69.75500000  *  156.71100000  * -54.20700000  *
   657       N         69.08000000  *  155.52800000  * -55.98700000  *
   658       H         69.23800000  *  154.70400000  * -56.55900000  *
   659       C         67.81900000  *  156.27200000  * -56.14500000  *
   660       H         68.06500000  *  157.32000000  * -56.32000000  *
   661       C         67.04000000  *  155.76100000  * -57.37000000  *
   662       H         66.18600000  *  156.42200000  * -57.52200000  *
   663       H         67.68300000  *  155.82100000  * -58.24900000  *
   664       C         66.53300000  *  154.31800000  * -57.21400000  *
   665       H         67.38900000  *  153.65900000  * -57.06100000  *
   666       H         65.89500000  *  154.25300000  * -56.33600000  *
   667       C         65.70400000  *  153.81100000  * -58.39700000  *
   668       O         65.21800000  *  154.61800000  * -59.22300000  *
   669       O         65.49600000  *  152.57900000  * -58.46400000  *
   670       C         66.97000000  *  156.19100000  * -54.85900000  *
   671       O         66.89000000  *  155.13400000  * -54.23300000  *
   672       N         66.34600000  *  157.28900000  * -54.42700000  *
   673       H         66.39300000  *  158.14000000  * -54.96800000  *
   674       C         65.49600000  *  157.27100000  * -53.23200000  *
   675       H         65.98200000  *  156.65700000  * -52.47000000  *
   676       C         65.37900000  *  158.68600000  * -52.66200000  *
   677       H         66.37700000  *  159.04900000  * -52.42400000  *
   678       H         64.95600000  *  159.34000000  * -53.42600000  *
   679       C         64.53500000  *  158.78100000  * -51.40500000  *
   680       C         63.22800000  *  159.29900000  * -51.46600000  *
   681       H         62.81900000  *  159.63600000  * -52.40900000  *
   682       C         62.44600000  *  159.37900000  * -50.30100000  *
   683       H         61.44100000  *  159.77600000  * -50.35300000  *
   684       C         62.96700000  *  158.93700000  * -49.07200000  *
   685       H         62.36300000  *  158.99500000  * -48.17600000  *
   686       C         64.27200000  *  158.42000000  * -49.00900000  *
   687       H         64.67200000  *  158.08500000  * -48.06200000  *
   688       C         65.05700000  *  158.34200000  * -50.17400000  *
   689       H         66.06100000  *  157.94500000  * -50.12300000  *
   690       C         64.11400000  *  156.65900000  * -53.51300000  *
   691       O         63.46300000  *  157.00800000  * -54.50100000  *
   692       N         63.64600000  *  155.79400000  * -52.60800000  *
   693       H         64.25500000  *  155.54100000  * -51.83900000  *
   694       C         62.25500000  *  155.33500000  * -52.52200000  *
   695       H         61.64700000  *  155.86400000  * -53.25900000  *
   696       C         62.14900000  *  153.82500000  * -52.79600000  *
   697       H         62.87500000  *  153.29500000  * -52.18100000  *
   698       H         61.15400000  *  153.50800000  * -52.48000000  *
   699       C         62.32900000  *  153.44700000  * -54.28000000  *
   700       H         61.99600000  *  154.27100000  * -54.91200000  *
   701       C         63.78600000  *  153.11600000  * -54.60700000  *
   702       H         64.14000000  *  152.31900000  * -53.95700000  *
   703       H         63.87600000  *  152.81400000  * -55.64900000  *
   704       H         64.40800000  *  153.99500000  * -54.45300000  *
   705       C         61.48500000  *  152.21900000  * -54.63000000  *
   706       H         60.43700000  *  152.41200000  * -54.39800000  *
   707       H         61.56400000  *  152.01100000  * -55.69600000  *
   708       H         61.82200000  *  151.35200000  * -54.06600000  *
   709       C         61.68900000  *  155.68400000  * -51.14000000  *
   710       O         62.40900000  *  155.67600000  * -50.14500000  *
   711       N         60.41000000  *  156.04500000  * -51.08500000  *
   712       H         59.88600000  *  156.06200000  * -51.95100000  *
   713       C         59.81200000  *  156.74200000  * -49.94100000  *
   714       H         60.50900000  *  157.51600000  * -49.61800000  *
   715       C         58.53400000  *  157.45000000  * -50.41400000  *
   716       H         57.76800000  *  156.69800000  * -50.60600000  *
   717       H         58.18600000  *  158.10200000  * -49.61400000  *
   718       C         58.70200000  *  158.27800000  * -51.66900000  *
   719       N         58.76800000  *  157.77100000  * -52.97200000  *
   720       C         58.93300000  *  158.83700000  * -53.77500000  *
   721       H         59.01900000  *  158.79600000  * -54.85500000  *
   722       N         58.97400000  *  159.96700000  * -53.04800000  *
   723       H         59.08400000  *  160.90200000  * -53.42900000  *
   724       C         58.83100000  *  159.63500000  * -51.71800000  *
   725       H         58.81900000  *  160.31200000  * -50.87300000  *
   726       C         59.53900000  *  155.87700000  * -48.69600000  *
   727       O         59.39900000  *  156.42900000  * -47.60500000  *
   728       N         59.46100000  *  154.54700000  * -48.83100000  *
   729       H         59.59900000  *  154.15100000  * -49.75100000  *
   730       C         59.08600000  *  153.62100000  * -47.75000000  *
   731       H         59.53800000  *  153.96900000  * -46.82100000  *
   732       C         57.55100000  *  153.65800000  * -47.57900000  *
   733       H         57.26400000  *  154.67400000  * -47.30300000  *
   734       H         57.06900000  *  153.41800000  * -48.52900000  *
   735       C         57.02800000  *  152.69500000  * -46.50300000  *
   736       H         56.90600000  *  151.70600000  * -46.94100000  *
   737       H         57.75600000  *  152.62800000  * -45.69600000  *
   738       C         55.70900000  *  153.15000000  * -45.89100000  *
   739       O         55.66600000  *  153.85000000  * -44.89200000  *
   740       N         54.57900000  *  152.77300000  * -46.45100000  *
   741       H         53.72900000  *  153.09100000  * -46.01200000  *
   742       H         54.58300000  *  152.22800000  * -47.29500000  *
   743       C         59.60300000  *  152.19000000  * -47.99800000  *
   744       O         59.68100000  *  151.74600000  * -49.14600000  *
   745       N         59.94000000  *  151.46100000  * -46.92700000  *
   746       H         59.83800000  *  151.88500000  * -46.00500000  *
   747       C         60.27300000  *  150.02800000  * -46.99700000  *
   748       H         60.57100000  *  149.80800000  * -48.01800000  *
   749       C         61.49900000  *  149.69900000  * -46.12600000  *
   750       H         61.82500000  *  148.69100000  * -46.38600000  *
   751       H         62.30700000  *  150.37900000  * -46.39700000  *
   752       C         61.27700000  *  149.74900000  * -44.61100000  *
   753       O         60.30500000  *  149.13700000  * -44.12300000  *
   754       O         62.12800000  *  150.34700000  * -43.91100000  *
   755       C         59.07100000  *  149.10800000  * -46.70000000  *
   756       O         58.03600000  *  149.53700000  * -46.17100000  *
   757       N         59.19100000  *  147.81900000  * -47.04800000  *
   758       H         60.03800000  *  147.50900000  * -47.52500000  *
   759       C         58.10100000  *  146.88000000  * -46.84100000  *
   760       H         57.21800000  *  147.32500000  * -47.29300000  *
   761       C         58.41200000  *  145.57700000  * -47.59200000  *
   762       H         58.61300000  *  145.80400000  * -48.64400000  *
   763       H         59.28800000  *  145.12100000  * -47.15800000  *
   764       C         57.28700000  *  144.52700000  * -47.51900000  *
   765       H         57.05600000  *  144.28000000  * -46.48700000  *
   766       C         56.00700000  *  145.04400000  * -48.19600000  *
   767       H         56.23500000  *  145.37800000  * -49.20200000  *
   768       H         55.26800000  *  144.24500000  * -48.23100000  *
   769       H         55.59500000  *  145.87000000  * -47.62900000  *
   770       C         57.76800000  *  143.24900000  * -48.17500000  *
   771       H         58.61500000  *  142.85400000  * -47.62000000  *
   772       H         56.97300000  *  142.50400000  * -48.17100000  *
   773       H         58.06400000  *  143.44500000  * -49.20700000  *
   774       C         57.76400000  *  146.61300000  * -45.36900000  *
   775       O         56.60900000  *  146.37600000  * -45.03000000  *
   776       N         58.75700000  *  146.67700000  * -44.48800000  *
   777       H         59.64000000  *  147.08600000  * -44.79000000  *
   778       C         58.49100000  *  146.46700000  * -43.07300000  *
   779       H         57.97900000  *  145.55100000  * -42.87200000  *
   780       C         59.78200000  *  146.47800000  * -42.25400000  *
   781       H         60.44800000  *  145.70000000  * -42.62000000  *
   782       H         60.28600000  *  147.44000000  * -42.35600000  *
   783       C         59.49200000  *  146.22900000  * -40.76500000  *
   784       H         58.94200000  *  147.08300000  * -40.37400000  *
   785       H         58.87100000  *  145.33200000  * -40.67600000  *
   786       C         60.74500000  *  146.03800000  * -39.93500000  *
   787       H         61.36100000  *  145.25900000  * -40.37900000  *
   788       H         61.30800000  *  146.97100000  * -39.90700000  *
   789       C         60.37600000  *  145.60700000  * -38.51700000  *
   790       H         59.98500000  *  144.58900000  * -38.53700000  *
   791       H         61.27900000  *  145.61300000  * -37.90300000  *
   792       N         59.34600000  *  146.53100000  * -37.94700000  *
   793       H         58.44600000  *  146.48100000  * -38.44300000  *
   794       H         59.09000000  *  146.27800000  * -37.00400000  *
   795       H         59.61300000  *  147.50600000  * -37.97800000  *
   796       C         57.55800000  *  147.53800000  * -42.51200000  *
   797       O         56.61300000  *  147.23400000  * -41.78300000  *
   798       N         57.83500000  *  148.81600000  * -42.79600000  *
   799       H         58.66400000  *  149.01400000  * -43.36300000  *
   800       C         56.99400000  *  149.92300000  * -42.31900000  *
   801       H         56.87800000  *  149.82500000  * -41.23800000  *
   802       C         57.65800000  *  151.27900000  * -42.60400000  *
   803       H         58.65600000  *  151.28300000  * -42.16300000  *
   804       H         57.75100000  *  151.42400000  * -43.68100000  *
   805       C         56.83300000  *  152.42500000  * -41.99100000  *
   806       H         55.86900000  *  152.48300000  * -42.49600000  *
   807       H         56.65800000  *  152.21300000  * -40.93500000  *
   808       C         57.53200000  *  153.78500000  * -42.10700000  *
   809       H         58.45800000  *  153.76000000  * -41.53000000  *
   810       H         57.76000000  *  153.98900000  * -43.15400000  *
   811       C         56.60600000  *  154.87700000  * -41.55400000  *
   812       H         55.68700000  *  154.88800000  * -42.15000000  *
   813       H         56.33300000  *  154.61600000  * -40.52700000  *
   814       N         57.24400000  *  156.21800000  * -41.57900000  *
   815       H         57.48300000  *  156.49500000  * -42.52000000  *
   816       H         56.62200000  *  156.92000000  * -41.20500000  *
   817       H         58.08600000  *  156.23300000  * -41.02300000  *
   818       C         55.59600000  *  149.81900000  * -42.91900000  *
   819       O         54.61200000  *  150.04400000  * -42.22000000  *
   820       N         55.49500000  *  149.42600000  * -44.18900000  *
   821       H         56.35000000  *  149.26300000  * -44.71300000  *
   822       C         54.20500000  *  149.26000000  * -44.85200000  *
   823       H         53.62600000  *  150.17500000  * -44.72500000  *
   824       C         54.41000000  *  148.98800000  * -46.34000000  *
   825       H         54.98900000  *  149.80200000  * -46.77700000  *
   826       H         55.00200000  *  148.07700000  * -46.45200000  *
   827       C         53.12600000  *  148.85300000  * -47.10800000  *
   828       C         52.23100000  *  149.92200000  * -47.18600000  *
   829       H         52.46300000  *  150.85600000  * -46.69900000  *
   830       C         51.01500000  *  149.79500000  * -47.88400000  *
   831       H         50.32500000  *  150.62800000  * -47.91800000  *
   832       C         50.69700000  *  148.60300000  * -48.50200000  *
   833       H         49.75200000  *  148.50200000  * -49.02000000  *
   834       C         51.58700000  *  147.52100000  * -48.43200000  *
   835       H         51.33500000  *  146.58300000  * -48.91200000  *
   836       C         52.79500000  *  147.65400000  * -47.73300000  *
   837       H         53.46700000  *  146.81000000  * -47.67200000  *
   838       C         53.37400000  *  148.12200000  * -44.22700000  *
   839       O         52.16900000  *  148.28300000  * -44.00900000  *
   840       N         54.01600000  *  146.98100000  * -43.96600000  *
   841       H         55.00900000  *  146.90600000  * -44.17900000  *
   842       C         53.33800000  *  145.83600000  * -43.34100000  *
   843       H         52.47600000  *  145.52800000  * -43.93400000  *
   844       C         54.29200000  *  144.65000000  * -43.17000000  *
   845       H         55.15800000  *  145.02700000  * -42.63600000  *
   846       H         53.80700000  *  143.89200000  * -42.54700000  *
   847       C         54.73100000  *  144.00400000  * -44.46100000  *
   848       H         53.84700000  *  143.61400000  * -44.95900000  *
   849       H         55.19200000  *  144.69400000  * -45.15000000  *
   850       S         55.79700000  *  142.58100000  * -44.15400000  *
   851       C         57.05400000  *  143.29200000  * -43.18800000  *
   852       H         56.67800000  *  143.65800000  * -42.23500000  *
   853       H         57.80700000  *  142.53400000  * -42.98200000  *
   854       H         57.44300000  *  144.07900000  * -43.80900000  *
   855       C         52.84400000  *  146.26000000  * -41.95900000  *
   856       O         51.68200000  *  146.03200000  * -41.61400000  *
   857       N         53.72600000  *  146.88400000  * -41.17900000  *
   858       H         54.70100000  *  146.95700000  * -41.45300000  *
   859       C         53.34300000  *  147.35100000  * -39.84600000  *
   860       H         53.03400000  *  146.49700000  * -39.23800000  *
   861       C         54.50500000  *  148.07700000  * -39.15700000  *
   862       H         54.94100000  *  148.81500000  * -39.83000000  *
   863       H         54.12400000  *  148.60600000  * -38.28400000  *
   864       C         55.58400000  *  147.11500000  * -38.68500000  *
   865       O         55.26200000  *  145.90900000  * -38.57600000  *
   866       O         56.73300000  *  147.55200000  * -38.41700000  *
   867       C         52.15000000  *  148.27900000  * -39.96300000  *
   868       O         51.20300000  *  148.18000000  * -39.18700000  *
   869       N         52.18300000  *  149.16200000  * -40.95500000  *
   870       H         53.01600000  *  149.23700000  * -41.51800000  *
   871       C         51.08600000  *  150.10000000  * -41.17300000  *
   872       H         50.93100000  *  150.67400000  * -40.25800000  *
   873       C         51.42800000  *  151.06800000  * -42.31500000  *
   874       H         51.45500000  *  150.53900000  * -43.26600000  *
   875       H         50.66000000  *  151.83800000  * -42.36800000  *
   876       H         52.39300000  *  151.53600000  * -42.12800000  *
   877       C         49.78900000  *  149.37000000  * -41.49900000  *
   878       O         48.71100000  *  149.83600000  * -41.15600000  *
   879       N         49.90500000  *  148.22900000  * -42.16400000  *
   880       H         50.83800000  *  147.88500000  * -42.38200000  *
   881       C         48.74000000  *  147.45400000  * -42.57500000  *
   882       H         47.85700000  *  148.08600000  * -42.62800000  *
   883       H         48.90600000  *  147.02300000  * -43.58600000  *
   884       H         48.52600000  *  146.61900000  * -41.88800000  *
   885       H         72.54500000  *  137.05800000  * -55.15200000  *
   886       C         72.38600000  *  137.90500000  * -54.47400000  *
   887       O         73.28300000  *  138.71900000  * -54.28600000  *
   888       N         71.20100000  *  138.01500000  * -53.89800000  *
   889       H         70.47300000  *  137.31400000  * -54.05700000  *
   890       C         70.96800000  *  139.10000000  * -52.94900000  *
   891       H         71.50000000  *  140.00600000  * -53.22900000  *
   892       C         69.47700000  *  139.40500000  * -52.82500000  *
   893       H         69.09300000  *  139.71900000  * -53.79200000  *
   894       H         68.93000000  *  138.50600000  * -52.53300000  *
   895       C         69.17800000  *  140.45400000  * -51.81200000  *
   896       N         69.23000000  *  140.42300000  * -50.45900000  *
   897       C         68.94700000  *  141.69100000  * -50.01400000  *
   898       H         68.96900000  *  142.01200000  * -48.98400000  *
   899       N         68.72400000  *  142.47200000  * -51.05500000  *
   900       H         68.47200000  *  143.44500000  * -51.00700000  *
   901       C         68.85400000  *  141.75000000  * -52.15500000  *
   902       H         68.77100000  *  142.12600000  * -53.16500000  *
   903       C         71.52100000  *  138.65700000  * -51.58300000  *
   904       O         72.28000000  *  139.38000000  * -50.94700000  *
   905       N         71.11400000  *  137.47100000  * -51.14500000  *
   906       H         70.37100000  *  137.01600000  * -51.66500000  *
   907       C         71.55500000  *  136.88000000  * -49.87700000  *
   908       H         71.18200000  *  135.84900000  * -49.87900000  *
   909       C         73.07600000  *  136.85300000  * -49.83700000  *
   910       H         73.53100000  *  137.83300000  * -49.86900000  *
   911       H         73.36600000  *  136.47900000  * -48.85100000  *
   912       C         73.64700000  *  135.85900000  * -50.81700000  *
   913       H         73.29800000  *  134.87100000  * -50.67200000  *
   914       H         73.21600000  *  136.10500000  * -51.78700000  *
   915       C         75.11700000  *  136.08400000  * -50.99900000  *
   916       H         75.61200000  *  135.95400000  * -50.03300000  *
   917       H         75.49500000  *  135.33200000  * -51.69500000  *
   918       N         75.35800000  *  137.42700000  * -51.50600000  *
   919       H         74.62100000  *  138.12700000  * -51.38200000  *
   920       C         76.54800000  *  137.85900000  * -51.89000000  *
   921       N         77.59300000  *  137.04400000  * -51.81500000  *
   922       H         77.44700000  *  136.21200000  * -51.26800000  *
   923       H         78.49900000  *  137.44300000  * -51.92100000  *
   924       N         76.69000000  *  139.09300000  * -52.35600000  *
   925       H         75.86000000  *  139.69200000  * -52.33800000  *
   926       H         77.56200000  *  139.47800000  * -52.67100000  *
   927       C         71.03700000  *  137.42400000  * -48.54200000  *
   928       O         71.18700000  *  136.76800000  * -47.50900000  *
   929       N         70.43700000  *  138.60400000  * -48.51600000  *
   930       H         70.32800000  *  139.16900000  * -49.34700000  *
   931       C         69.93700000  *  139.07600000  * -47.23100000  *
   932       H         69.76500000  *  138.24900000  * -46.54100000  *
   933       C         70.93500000  *  140.04200000  * -46.56200000  *
   934       H         71.90900000  *  139.56600000  * -46.50900000  *
   935       H         71.04400000  *  140.94300000  * -47.17900000  *
   936       C         70.51300000  *  140.42800000  * -45.14700000  *
   937       O         70.17200000  *  139.51500000  * -44.35500000  *
   938       O         70.51000000  *  141.64400000  * -44.82500000  *
   939       C         68.58700000  *  139.73400000  * -47.37800000  *
   940       O         68.35000000  *  140.81000000  * -46.83500000  *
   941       N         67.68700000  *  139.08300000  * -48.11000000  *
   942       H         67.94300000  *  138.20800000  * -48.54500000  *
   943       C         66.35900000  *  139.64900000  * -48.29900000  *
   944       H         66.47700000  *  140.66700000  * -48.65900000  *
   945       C         65.54600000  *  138.81300000  * -49.28800000  *
   946       H         65.58300000  *  137.78400000  * -48.94500000  *
   947       H         64.50600000  *  139.14000000  * -49.25500000  *
   948       C         66.02700000  *  138.85500000  * -50.73600000  *
   949       H         67.06400000  *  138.52800000  * -50.78200000  *
   950       C         65.17300000  *  137.91700000  * -51.58300000  *
   951       H         64.15900000  *  138.30500000  * -51.68800000  *
   952       H         65.63400000  *  137.80700000  * -52.55000000  *
   953       H         65.13400000  *  136.93500000  * -51.11000000  *
   954       C         65.92100000  *  140.27700000  * -51.26400000  *
   955       H         66.42000000  *  140.99600000  * -50.63300000  *
   956       H         66.44200000  *  140.27500000  * -52.20900000  *
   957       H         64.88200000  *  140.56100000  * -51.39700000  *
   958       C         65.59400000  *  139.73400000  * -46.98200000  *
   959       O         65.58600000  *  138.79200000  * -46.16600000  *
   960       N         64.95800000  *  140.85600000  * -46.74300000  *
   961       H         64.96900000  *  141.58900000  * -47.44000000  *
   962       C         64.16900000  *  141.06300000  * -45.54300000  *
   963       H         63.55600000  *  140.17300000  * -45.40600000  *
   964       C         65.04800000  *  141.22300000  * -44.28300000  *
   965       H         64.41100000  *  141.28200000  * -43.39900000  *
   966       H         65.64500000  *  140.31800000  * -44.16900000  *
   967       C         65.98400000  *  142.43800000  * -44.28000000  *
   968       H         66.39000000  *  142.59400000  * -45.27700000  *
   969       H         65.43100000  *  143.32500000  * -43.97400000  *
   970       C         67.14400000  *  142.17000000  * -43.31300000  *
   971       H         66.75000000  *  141.87900000  * -42.33600000  *
   972       H         67.72900000  *  141.33900000  * -43.71500000  *
   973       C         68.04500000  *  143.39700000  * -43.14400000  *
   974       H         68.13800000  *  143.90800000  * -44.10800000  *
   975       H         67.56300000  *  144.09100000  * -42.44600000  *
   976       N         69.38700000  *  142.99400000  * -42.64800000  *
   977       H         69.87500000  *  142.43000000  * -43.35800000  *
   978       H         69.95000000  *  143.80300000  * -42.42000000  *
   979       H         69.30500000  *  142.43600000  * -41.80800000  *
   980       C         63.27000000  *  142.23300000  * -45.83100000  *
   981       O         63.63500000  *  143.08100000  * -46.64600000  *
   982       N         62.11200000  *  142.30300000  * -45.18600000  *
   983       C         61.62600000  *  141.34600000  * -44.17100000  *
   984       H         62.10000000  *  141.53200000  * -43.20900000  *
   985       H         61.74500000  *  140.31100000  * -44.47600000  *
   986       C         60.16400000  *  141.66900000  * -44.09500000  *
   987       H         59.73700000  *  141.34900000  * -43.14300000  *
   988       H         59.63700000  *  141.20600000  * -44.93200000  *
   989       C         60.16000000  *  143.18900000  * -44.24800000  *
   990       H         60.51600000  *  143.64900000  * -43.32100000  *
   991       H         59.20200000  *  143.56500000  * -44.57400000  *
   992       C         61.14500000  *  143.38000000  * -45.40300000  *
   993       H         60.63400000  *  143.20500000  * -46.34500000  *
   994       C         61.77100000  *  144.77100000  * -45.44800000  *
   995       O         61.39200000  *  145.58400000  * -46.27300000  *
   996       N         62.72300000  *  145.09700000  * -44.55600000  *
   997       H         62.96800000  *  144.41300000  * -43.85500000  *
   998       C         63.43500000  *  146.39800000  * -44.54200000  *
   999       H         62.70200000  *  147.20000000  * -44.43700000  *
  1000       C         64.40800000  *  146.46700000  * -43.35200000  *
  1001       H         65.09400000  *  145.62100000  * -43.40400000  *
  1002       H         65.00000000  *  147.38000000  * -43.44500000  *
  1003       C         63.73100000  *  146.49500000  * -41.97400000  *
  1004       H         63.04500000  *  147.34200000  * -41.93800000  *
  1005       H         63.16300000  *  145.57900000  * -41.82500000  *
  1006       C         64.75200000  *  146.61600000  * -40.84000000  *
  1007       O         65.79300000  *  145.97300000  * -40.83200000  *
  1008       N         64.49900000  *  147.42900000  * -39.83800000  *
  1009       H         65.18300000  *  147.49900000  * -39.09800000  *
  1010       H         63.66800000  *  147.99900000  * -39.82700000  *
  1011       C         64.24600000  *  146.69000000  * -45.82100000  *
  1012       O         64.41900000  *  147.84300000  * -46.21100000  *
  1013       N         64.75100000  *  145.64400000  * -46.47700000  *
  1014       H         64.48000000  *  144.72300000  * -46.16500000  *
  1015       C         65.53100000  *  145.70600000  * -47.71300000  *
  1016       H         66.08500000  *  146.64500000  * -47.75200000  *
  1017       C         66.55700000  *  144.54500000  * -47.72600000  *
  1018       H         66.05700000  *  143.60900000  * -47.49300000  *
  1019       H         66.96900000  *  144.44400000  * -48.72700000  *
  1020       C         67.74700000  *  144.73100000  * -46.79300000  *
  1021       O         67.98900000  *  145.79600000  * -46.24500000  *
  1022       N         68.53000000  *  143.69800000  * -46.56700000  *
  1023       H         69.38000000  *  143.84700000  * -46.04900000  *
  1024       H         68.31100000  *  142.75800000  * -46.88100000  *
  1025       C         64.63200000  *  145.70200000  * -48.96700000  *
  1026       O         65.15800000  *  145.60100000  * -50.07300000  *
  1027       N         63.30000000  *  145.80300000  * -48.83400000  *
  1028       H         62.89500000  *  145.87300000  * -47.90900000  *
  1029       C         62.40600000  *  145.84500000  * -49.97900000  *
  1030       H         62.94700000  *  145.74800000  * -50.91900000  *
  1031       C         61.36900000  *  144.72100000  * -49.88900000  *
  1032       H         60.76900000  *  144.86100000  * -48.99200000  *
  1033       H         60.74400000  *  144.79800000  * -50.77200000  *
  1034       C         62.03600000  *  143.32400000  * -49.85900000  *
  1035       H         62.67100000  *  143.24000000  * -48.98800000  *
  1036       C         61.00200000  *  142.26000000  * -49.77100000  *
  1037       H         60.24600000  *  142.42800000  * -50.53400000  *
  1038       H         61.44700000  *  141.27100000  * -49.89000000  *
  1039       H         60.52000000  *  142.31900000  * -48.79800000  *
  1040       C         62.89500000  *  143.12600000  * -51.08400000  *
  1041       H         63.82900000  *  143.66800000  * -50.95600000  *
  1042       H         63.12900000  *  142.06900000  * -51.20900000  *
  1043       H         62.39300000  *  143.49200000  * -51.96600000  *
  1044       C         61.76300000  *  147.21800000  * -49.95200000  *
  1045       O         61.15000000  *  147.60200000  * -48.96600000  *
  1046       N         61.89100000  *  147.98600000  * -51.02800000  *
  1047       H         62.38400000  *  147.61500000  * -51.83500000  *
  1048       C         61.44200000  *  149.37800000  * -51.05900000  *
  1049       H         61.05400000  *  149.67600000  * -50.08700000  *
  1050       C         62.61100000  *  150.29800000  * -51.39100000  *
  1051       H         62.94100000  *  150.09200000  * -52.41000000  *
  1052       H         62.24600000  *  151.32200000  * -51.33900000  *
  1053       C         63.81100000  *  150.14800000  * -50.45000000  *
  1054       H         64.23700000  *  149.15200000  * -50.55100000  *
  1055       C         64.84200000  *  151.17400000  * -50.87100000  *
  1056       H         64.49200000  *  152.16600000  * -50.59900000  *
  1057       H         65.78200000  *  150.94900000  * -50.37800000  *
  1058       H         64.99600000  *  151.15200000  * -51.94400000  *
  1059       C         63.47500000  *  150.39500000  * -48.98100000  *
  1060       H         62.84400000  *  149.59000000  * -48.61500000  *
  1061       H         64.38600000  *  150.39800000  * -48.38600000  *
  1062       H         62.95700000  *  151.34700000  * -48.86400000  *
  1063       C         60.32200000  *  149.56200000  * -52.06300000  *
  1064       O         60.42000000  *  149.10300000  * -53.18900000  *
  1065       N         59.26800000  *  150.25600000  * -51.67700000  *
  1066       H         59.36500000  *  150.76300000  * -50.80000000  *
  1067       C         58.08300000  *  150.44700000  * -52.50800000  *
  1068       H         58.17300000  *  149.92400000  * -53.45700000  *
  1069       C         56.81900000  *  149.90600000  * -51.78600000  *
  1070       H         55.94300000  *  150.08700000  * -52.41500000  *
  1071       C         56.95000000  *  148.40400000  * -51.54300000  *
  1072       H         57.75300000  *  148.18300000  * -50.83300000  *
  1073       H         56.01300000  *  148.00400000  * -51.15200000  *
  1074       H         57.15800000  *  147.91500000  * -52.48900000  *
  1075       C         56.64700000  *  150.60600000  * -50.43300000  *
  1076       H         57.48200000  *  150.38000000  * -49.77500000  *
  1077       H         56.60500000  *  151.68300000  * -50.57600000  *
  1078       C         55.37000000  *  150.22200000  * -49.68600000  *
  1079       H         55.48900000  *  149.24800000  * -49.22200000  *
  1080       H         55.17000000  *  150.96500000  * -48.91000000  *
  1081       H         54.52900000  *  150.16800000  * -50.38500000  *
  1082       C         57.87200000  *  151.93000000  * -52.81700000  *
  1083       O         58.38200000  *  152.79400000  * -52.10000000  *
  1084       N         57.14900000  *  152.22000000  * -53.89700000  *
  1085       H         56.70500000  *  151.48200000  * -54.43300000  *
  1086       C         56.84100000  *  153.60200000  * -54.22700000  *
  1087       H         57.16800000  *  154.27800000  * -53.43100000  *
  1088       C         57.50400000  *  154.05300000  * -55.54100000  *
  1089       H         57.21800000  *  155.07000000  * -55.80500000  *
  1090       H         58.58200000  *  154.04400000  * -55.38800000  *
  1091       C         57.19300000  *  153.14600000  * -56.70100000  *
  1092       O         56.13500000  *  152.53500000  * -56.76400000  *
  1093       N         58.11500000  *  153.07200000  * -57.64100000  *
  1094       H         57.83300000  *  152.61700000  * -58.48600000  *
  1095       H         58.88600000  *  153.71500000  * -57.62100000  *
  1096       C         55.33100000  *  153.75800000  * -54.32100000  *
  1097       O         54.57600000  *  152.79900000  * -54.11400000  *
  1098       N         54.88500000  *  154.97100000  * -54.62100000  *
  1099       H         55.52100000  *  155.73600000  * -54.79200000  *
  1100       C         53.46400000  *  155.24700000  * -54.72300000  *
  1101       H         52.92700000  *  154.82600000  * -53.87200000  *
  1102       C         53.20900000  *  156.78000000  * -54.75500000  *
  1103       H         52.16900000  *  156.98000000  * -55.02600000  *
  1104       C         53.47800000  *  157.39700000  * -53.41000000  *
  1105       H         54.52100000  *  157.25500000  * -53.13000000  *
[...]
 1005  H   0.83031
 1006  C   1.06514   0.79967   0.73135   0.79666
 1007  O   1.87703   1.39937   1.58713   1.83605
 1008  N   1.52702   1.33420   1.43862   1.30033
 1009  H   0.65731
 1010  H   0.66197
 1011  C   1.08320   0.75430   0.78209   0.81768
 1012  O   1.88522   1.66551   1.31467   1.72485
 1013  N   1.55049   1.50379   1.20150   1.30403
 1014  H   0.66638
 1015  C   1.07164   0.94462   1.09586   0.82328
 1016  H   0.80467
 1017  C   1.07023   1.05317   1.09399   1.15890
 1018  H   0.83066
 1019  H   0.79551
 1020  C   1.05921   0.79916   0.76429   0.76360
 1021  O   1.87711   1.78065   1.40880   1.60172
 1022  N   1.53006   1.31677   1.20229   1.57116
 1023  H   0.66800
 1024  H   0.65561
 1025  C   1.08685   0.78536   0.71994   0.85270
 1026  O   1.87866   1.76526   1.61011   1.38320
 1027  N   1.54089   1.12611   1.66391   1.18358
 1028  H   0.65300
 1029  C   1.06988   0.96930   0.97984   0.97480
 1030  H   0.81141
 1031  C   1.06729   1.06436   0.99766   1.17277
 1032  H   0.83708
 1033  H   0.84827
 1034  C   1.04099   1.01175   0.94633   1.06205
 1035  H   0.85591
 1036  C   1.04920   1.12588   1.11848   1.17082
 1037  H   0.84503
 1038  H   0.84905
 1039  H   0.86550
 1040  C   1.05154   1.14170   1.17179   1.09914
 1041  H   0.84443
 1042  H   0.85773
 1043  H   0.85000
 1044  C   1.07681   0.74957   0.84276   0.75528
 1045  O   1.87201   1.53683   1.79690   1.44529
 1046  N   1.54623   1.55665   1.17156   1.24821
 1047  H   0.64559
 1048  C   1.06484   0.98892   0.82631   1.09906
 1049  H   0.81425
 1050  C   1.06469   1.02356   1.10436   1.12694
 1051  H   0.84665
 1052  H   0.84075
 1053  C   1.04795   0.96730   1.07251   0.96846
 1054  H   0.86587
 1055  C   1.05365   1.12491   1.12993   1.16554
 1056  H   0.84608
 1057  H   0.84857
 1058  H   0.85980
 1059  C   1.05472   1.17675   1.17638   1.04576
 1060  H   0.83974
 1061  H   0.85197
 1062  H   0.84811
 1063  C   1.07562   0.79816   0.74373   0.81789
 1064  O   1.86912   1.83045   1.62546   1.34126
 1065  N   1.54121   1.19147   1.47001   1.29522
 1066  H   0.64516
 1067  C   1.07606   0.88901   1.00700   1.04160
 1068  H   0.81002
 1069  C   1.06430   1.01535   0.99289   1.01972
 1070  H   0.85031
 1071  C   1.05461   1.18114   1.03412   1.17642
 1072  H   0.84320
 1073  H   0.84527
 1074  H   0.85343
 1075  C   1.05399   1.06954   1.12040   1.03123
 1076  H   0.84551
 1077  H   0.86083
 1078  C   1.05244   1.08959   1.15721   1.13167
 1079  H   0.84829
 1080  H   0.87838
 1081  H   0.84697
 1082  C   1.08623   0.74306   0.88788   0.74306
 1083  O   1.88693   1.56773   1.57595   1.55611
 1084  N   1.54290   1.50757   1.14396   1.33778
 1085  H   0.64359
 1086  C   1.06245   0.97182   0.88442   1.03757
 1087  H   0.80352
 1088  C   1.07255   1.18088   1.12803   1.02381
 1089  H   0.80904
 1090  H   0.80499
 1091  C   1.06097   0.76144   0.77057   0.82332
 1092  O   1.88008   1.35566   1.56949   1.83569
 1093  N   1.53420   1.29790   1.49516   1.27231
 1094  H   0.67178
 1095  H   0.66506
 1096  C   1.08288   0.88479   0.75919   0.71280
 1097  O   1.88772   1.65427   1.46869   1.58904
 1098  N   1.54004   1.14501   1.19759   1.67203
 1099  H   0.66301
 1100  C   1.08555   0.83741   1.05804   1.08237
 1101  H   0.80371
 1102  C   1.08423   0.99113   0.86697   0.88987
 1103  H   0.84732
 1104  C   1.05381   1.18410   1.18019   1.05442
 1105  H   0.84124
 1106  H   0.82430
 1107  H   0.82926
 1108  O   1.84881   1.59229   1.82300   1.34515
 1109  H   0.64264
 1110  C   1.07337   0.78888   0.75538   0.82409
 1111  O   1.87784   1.28003   1.68915   1.84883
 1112  N   1.53331   1.19346   1.53465   1.21092
 1113  H   0.66703
 1114  C   1.05708   1.15373   1.13335   0.89318
 1115  H   0.83546
 1116  H   0.83782
 1117  H   0.83548
 1118  H   0.83974
 1119  C   1.10507   0.75503   0.73538   0.91351
 1120  O   1.88316   1.71072   1.59642   1.48261
 1121  N   1.54488   1.42818   1.34577   1.20823
 1122  H   0.65353
 1123  C   1.08074   0.93101   1.08441   0.93142
 1124  H   0.80956
 1125  C   1.07313   1.07910   0.95371   0.98254
 1126  H   0.84400
 1127  C   1.05810   1.18709   1.08399   1.12925
 1128  H   0.84356
 1129  H   0.84848
 1130  H   0.85213
 1131  C   1.05414   1.07575   1.13452   1.01856
 1132  H   0.85368
 1133  H   0.85467
 1134  C   1.04916   1.14389   1.15097   1.09055
 1135  H   0.85005
 1136  H   0.85958
 1137  H   0.84941
 1138  C   1.07223   0.84173   0.73674   0.77770
 1139  O   1.87775   1.89037   1.52074   1.39064
 1140  N   1.54471   1.10291   1.52652   1.33544
 1141  H   0.63243
 1142  C   1.06988   0.84598   1.05354   1.03780
 1143  H   0.81804
 1144  C   1.06004   1.09249   1.04623   1.09621
 1145  H   0.83618
 1146  H   0.84662
 1147  C   1.05105   1.08570   1.04443   1.07792
 1148  H   0.85004
 1149  H   0.84466
 1150  C   1.05932   1.08204   1.05480   1.09813
 1151  H   0.84146
 1152  H   0.83240
 1153  C   1.07885   1.02198   0.99741   1.07417
 1154  H   0.81168
 1155  H   0.83347
 1156  N   1.45910   1.23070   1.22888   1.25633
 1157  H   0.69461
 1158  H   0.70039
 1159  H   0.68645
 1160  C   1.07832   0.77976   0.75046   0.82544
 1161  O   1.88113   1.77261   1.69301   1.29062
 1162  N   1.54480   1.32899   1.42533   1.23089
 1163  H   0.64037
 1164  C   1.07035   0.91888   0.95788   1.02921
 1165  H   0.83194
 1166  C   1.06274   1.10008   1.01950   1.13293
 1167  H   0.83520
 1168  H   0.84498
 1169  C   1.05371   1.07065   0.96102   0.96351
 1170  H   0.85956
 1171  C   1.06223   1.16614   1.13943   1.09231
 1172  H   0.85194
 1173  H   0.84917
 1174  H   0.85266
 1175  C   1.05740   1.18271   1.13698   1.08873
 1176  H   0.85349
 1177  H   0.84824
 1178  H   0.85432
 1179  C   1.08503   0.79117   0.79815   0.75852
 1180  O   1.88095   1.63430   1.59864   1.53671
 1181  N   1.54441   1.37092   1.43780   1.15941
 1182  H   0.64701
 1183  C   1.06757   0.91385   0.92714   1.05042
 1184  H   0.82803
 1185  C   1.05943   1.16338   1.08815   1.15304
 1186  H   0.82188
 1187  H   0.83232
 1188  H   0.82822
 1189  C   1.08823   0.78931   0.78176   0.74595
 1190  O   1.87290   1.84826   1.36547   1.58463
 1191  N   1.54662   1.16571   1.33435   1.48798
 1192  H   0.67300
 1193  C   1.07391   0.87595   1.08161   0.93617
 1194  H   0.81241
 1195  C   1.07883   1.13979   1.18873   1.00417
 1196  H   0.81173
 1197  H   0.82788
 1198  C   1.07343   0.74737   0.72671   0.69134
 1199  O   1.88596   1.78271   1.46976   1.59186
 1200  O   1.87480   1.70279   1.50004   1.79331
 1201  C   1.09117   0.81841   0.79752   0.74348
 1202  O   1.88718   1.27693   1.81699   1.56508
 1203  N   1.56729   1.29305   1.16804   1.54385
 1204  H   0.67815
 1205  C   1.07950   1.01992   0.91950   0.95318
 1206  H   0.83940
 1207  C   1.05566   1.07734   1.20262   0.96262
 1208  H   0.81370
 1209  H   0.82003
 1210  C   1.07477   0.97421   0.97760   0.97030
 1211  C   1.09012   1.04116   1.04152   1.01412
 1212  H   0.83962
 1213  C   1.08866   0.98539   1.06194   1.01065
 1214  H   0.84228
 1215  C   1.08753   1.05967   0.99176   1.03214
 1216  H   0.84778
 1217  C   1.08943   1.03724   1.03615   0.98935
 1218  H   0.83154
 1219  C   1.08726   0.98612   1.06386   1.02364
 1220  H   0.83806
 1221  C   1.08973   0.80304   0.77318   0.76295
 1222  O   1.88534   1.44388   1.55916   1.71391
 1223  N   1.53943   1.41493   1.43784   1.13668
 1224  H   0.68538
 1225  C   1.06833   0.98854   1.06816   0.98119
 1226  H   0.81615
 1227  H   0.80590
 1228  C   1.07965   0.82842   0.77879   0.70349
 1229  O   1.87710   1.84055   1.32356   1.60925
 1230  N   1.55913   1.30156   1.23385   1.44967
 1231  H   0.67472
 1232  C   1.07776   0.89814   1.03278   0.96969
 1233  H   0.83204
 1234  C   1.06796   1.11396   0.95087   1.17389
 1235  H   0.84121
 1236  H   0.82818
 1237  C   1.05186   1.03190   0.95940   1.01294
 1238  H   0.86211
 1239  C   1.05578   1.16929   1.06948   1.15885
 1240  H   0.85755
 1241  H   0.84227
 1242  H   0.86122
 1243  C   1.05559   1.17165   1.18963   1.04491
 1244  H   0.84102
 1245  H   0.84007
 1246  H   0.85804
 1247  C   1.09501   0.85790   0.76659   0.72749
 1248  O   1.88134   1.32399   1.78583   1.59250
 1249  N   1.58212   1.28175   1.23293   1.52144
 1250  H   0.66093
 1251  C   1.06867   0.96482   0.99752   0.95392
 1252  H   0.83615
 1253  C   1.05859   1.13939   1.09717   1.17434
 1254  H   0.84392
 1255  H   0.80975
 1256  H   0.81100
 1257  C   1.07566   0.83419   0.75244   0.78160
 1258  O   1.88397   1.49917   1.59887   1.64922
 1259  N   1.54299   1.31151   1.51238   1.14404
 1260  H   0.67633
 1261  C   1.06250   0.92406   1.14577   1.10582
 1262  H   0.82624
 1263  H   0.82962
 1264  H   0.83893
 1265  H   0.84129
 1266  C   1.10474   0.72489   0.79429   0.87702
 1267  O   1.88387   1.53297   1.36163   1.88305
 1268  N   1.54278   1.48755   1.35118   1.14839
 1269  H   0.67738
 1270  C   1.07278   1.11696   0.96733   0.82276
 1271  H   0.80254
 1272  C   1.05754   1.09012   1.02784   1.15033
 1273  H   0.83904
 1274  H   0.82128
 1275  C   1.06431   0.97812   0.95018   0.96860
 1276  C   1.08292   1.02004   0.99421   1.05910
 1277  H   0.83899
 1278  C   1.08237   1.04696   1.02722   0.99766
 1279  H   0.84415
 1280  C   1.08134   1.00661   1.05574   1.02613
 1281  H   0.84945
 1282  C   1.08063   1.02452   1.00403   1.05490
 1283  H   0.85511
 1284  C   1.08282   1.05869   1.02585   0.99573
 1285  H   0.84066
 1286  C   1.08011   0.76671   0.78615   0.79912
 1287  O   1.88377   1.53939   1.68071   1.53393
 1288  N   1.53638   1.17538   1.34771   1.43129
 1289  H   0.67315
 1290  C   1.05785   1.14235   0.97574   0.99826
 1291  H   0.81504
 1292  H   0.78883
 1293  C   1.07421   0.78773   0.75687   0.80191
 1294  O   1.88051   1.54204   1.38424   1.84203
 1295  N   1.53611   1.41005   1.37731   1.17730
 1296  H   0.65044
 1297  C   1.07421   1.00272   1.19850   0.87817
 1298  H   0.81288
 1299  H   0.79412
 1300  C   1.08201   0.77429   0.74513   0.80731
 1301  O   1.88290   1.52155   1.53254   1.73119
 1302  N   1.56473   1.44496   1.16602   1.26734
 1303  C   1.07078   1.06931   0.87090   1.05666
 1304  H   0.83608
 1305  H   0.84098
 1306  C   1.05709   1.04764   1.13551   1.05890
 1307  H   0.84537
 1308  H   0.80791
 1309  C   1.06101   1.08150   0.98352   1.17237
 1310  H   0.83538
 1311  H   0.81898
 1312  C   1.07357   1.05280   1.00103   0.86810
 1313  H   0.81302
 1314  C   1.08824   0.76366   0.76849   0.82881
 1315  O   1.88394   1.42692   1.43557   1.88335
 1316  N   1.54311   1.40339   1.48370   1.11750
 1317  H   0.64346
 1318  C   1.08220   1.04974   1.11409   0.89109
 1319  H   0.80091
 1320  H   0.78734
 1321  C   1.08825   0.82553   0.73034   0.77838
 1322  O   1.88491   1.70324   1.72963   1.32944
 1323  N   1.55111   1.23253   1.41127   1.34463
 1324  H   0.68843
 1325  C   1.07568   0.85978   1.06399   0.97853
 1326  H   0.82214
 1327  C   1.05960   1.16899   1.07552   0.97638
 1328  H   0.83488
 1329  H   0.83871
 1330  C   1.05818   1.13842   1.07476   1.02390
 1331  H   0.82468
 1332  H   0.87158
 1333  C   1.06375   1.08746   1.09997   0.78143
 1334  H   0.85046
 1335  H   0.81939
 1336  N   1.53281   1.62694   1.28990   1.09339
 1337  H   0.64880
 1338  C   0.97599   0.83628   0.80291   0.79451
 1339  N   1.50145   1.56337   1.25851   1.24813
 1340  H   0.67466
 1341  H   0.62637
 1342  N   1.50406   1.55703   1.35352   1.14116
 1343  H   0.64458
 1344  H   0.63722
 1345  C   1.08249   0.75742   0.77392   0.84369
 1346  O   1.88760   1.48121   1.64734   1.56809
 1347  N   1.54318   1.54499   1.19772   1.24117
 1348  H   0.67347
 1349  C   1.09005   0.99981   1.00970   0.91800
 1350  H   0.79865
 1351  C   1.08601   0.92899   0.92583   0.87528
 1352  H   0.84894
 1353  C   1.05834   1.09871   1.12870   1.20327
 1354  H   0.82609
 1355  H   0.83382
 1356  H   0.83108
 1357  O   1.84253   1.58446   1.64217   1.57241
 1358  H   0.62467
 1359  C   1.07901   0.80855   0.78932   0.75839
 1360  O   1.88637   1.54254   1.79534   1.37652
 1361  N   1.55284   1.32713   1.29607   1.37731
 1362  H   0.65178
 1363  C   1.07395   0.98900   0.92722   0.99349
 1364  H   0.81743
 1365  C   1.05776   1.09605   1.06849   1.08611
 1366  H   0.84115
 1367  H   0.82979
 1368  C   1.06142   0.97121   0.97492   1.05759
 1369  C   1.08296   0.97339   1.08032   0.99500
 1370  H   0.84428
 1371  C   1.08282   1.08137   0.99481   1.01093
 1372  H   0.80640
 1373  C   1.06585   0.82600   0.89591   0.91584
 1374  O   1.84136   1.46947   1.54067   1.69632
 1375  H   0.63910
 1376  C   1.07407   0.99044   1.09190   1.06827
 1377  H   0.84688
 1378  C   1.08149   1.06436   0.99875   0.99715
 1379  H   0.85861
 1380  C   1.08194   0.77644   0.73402   0.82102
 1381  O   1.88473   1.39059   1.55621   1.82934
 1382  N   1.55035   1.20066   1.60157   1.14809
 1383  H   0.66065
 1384  C   1.08719   1.11697   1.03472   0.83748
 1385  H   0.82135
 1386  C   1.08254   0.83223   0.89087   1.00015
 1387  H   0.86825
 1388  C   1.05718   1.09865   1.14103   1.18960
 1389  H   0.83113
 1390  H   0.84553
 1391  H   0.84161
 1392  O   1.84700   1.32393   1.76622   1.66696
 1393  H   0.61646
 1394  C   1.08202   0.82826   0.76395   0.79196
 1395  O   1.88733   1.29180   1.70668   1.67695
 1396  N   1.54289   1.22793   1.27105   1.47590
 1397  H   0.64946
 1398  C   1.07064   0.98390   1.04042   1.07606
 1399  H   0.84416
 1400  H   0.80877
 1401  C   1.07027   0.85084   0.72019   0.75163
 1402  O   1.88497   1.70087   1.45758   1.55952
 1403  N   1.55349   1.14739   1.51366   1.33246
 1404  H   0.67989
 1405  C   1.07064   0.82924   0.98732   1.12881
 1406  H   0.81451
 1407  C   1.05327   1.16410   0.98988   1.05239
 1408  H   0.83904
 1409  H   0.83630
 1410  C   1.05974   1.20525   1.01201   1.13815
 1411  H   0.84295
 1412  H   0.82627
 1413  C   1.06680   0.72295   0.72048   0.72824
 1414  O   1.88766   1.47238   1.82291   1.63629
 1415  O   1.88497   1.51827   1.58686   1.81454
 1416  C   1.08680   0.77111   0.86261   0.75463
 1417  O   1.88735   1.64832   1.65291   1.40928
 1418  N   1.54583   1.31038   1.19195   1.47867
 1419  H   0.65323
 1420  C   1.07213   1.06262   0.88123   1.00747
 1421  H   0.84369
 1422  C   1.05449   1.01871   1.03227   0.97100
 1423  H   0.83624
 1424  C   1.05591   1.17742   1.04875   1.19322
 1425  H   0.84545
 1426  H   0.83585
 1427  H   0.83802
 1428  C   1.05456   1.18127   1.16758   1.06139
 1429  H   0.84073
 1430  H   0.83986
 1431  H   0.85202
 1432  C   1.07567   0.77105   0.73154   0.84219
 1433  O   1.88367   1.36375   1.63754   1.76942
 1434  N   1.53826   1.27320   1.47288   1.21099
 1435  H   0.66889
 1436  C   1.07707   1.00700   1.05449   0.86813
 1437  H   0.82270
 1438  C   1.06064   1.02677   1.01614   0.97680
 1439  H   0.84046
 1440  C   1.05417   1.18413   1.09808   1.12136
 1441  H   0.84109
 1442  H   0.84082
 1443  H   0.85067
 1444  C   1.05738   1.18966   1.16668   1.05258
 1445  H   0.84623
 1446  H   0.83568
 1447  H   0.83873
 1448  C   1.08148   0.80668   0.78622   0.75099
 1449  O   1.88312   1.81173   1.47369   1.46044
 1450  N   1.53599   1.23691   1.43133   1.31654
 1451  H   0.66463
 1452  C   1.07960   0.90429   0.96817   1.14836
 1453  H   0.80515
 1454  C   1.07972   0.93540   0.82460   0.98305
 1455  H   0.86663
 1456  C   1.05745   1.09504   1.13577   1.19626
 1457  H   0.82481
 1458  H   0.82212
 1459  H   0.84130
 1460  O   1.84757   1.47782   1.49389   1.78186
 1461  H   0.64866
 1462  C   1.07068   0.75362   0.82651   0.79806
 1463  O   1.88054   1.50726   1.88269   1.36455
 1464  N   1.53714   1.55009   1.12172   1.29443
 1465  H   0.65701
 1466  C   1.05411   1.16775   0.87317   1.13580
 1467  H   0.83024
 1468  H   0.83680
 1469  H   0.85124
 1470  H   0.82737
 1471  C   1.10846   0.72194   0.77569   0.90300
 1472  O   1.87917   1.50027   1.39717   1.89102
 1473  N   1.54806   1.50781   1.35865   1.13689
 1474  H   0.67054
 1475  C   1.07821   1.08306   1.04082   0.80189
 1476  H   0.80369
 1477  C   1.05903   1.13428   0.99956   1.10163
 1478  H   0.81851
 1479  H   0.82213
 1480  C   1.06602   0.97582   0.99259   1.00492
 1481  C   1.08223   0.99074   1.02508   1.00496
 1482  H   0.83758
 1483  C   1.07634   1.10500   1.04964   1.06607
 1484  H   0.82047
 1485  C   1.07249   0.88649   0.88221   0.88001
 1486  O   1.83869   1.35495   1.61297   1.73280
 1487  H   0.61922
 1488  C   1.07858   0.98865   1.09955   1.09652
 1489  H   0.82144
 1490  C   1.08808   1.07850   0.97910   0.96938
 1491  H   0.83524
 1492  C   1.08086   0.79995   0.76892   0.79199
 1493  O   1.88631   1.81388   1.69946   1.28033
 1494  N   1.53472   1.25588   1.50895   1.18459
 1495  H   0.67095
 1496  C   1.06143   0.92033   1.08956   1.16676
 1497  H   0.83439
 1498  H   0.82978
 1499  H   0.83851
 1500  H   0.82499
 1501  C   1.10799   0.78631   0.88384   0.71627
 1502  O   1.88013   1.43038   1.87071   1.50909
 1503  N   1.55064   1.37513   1.18537   1.44524
 1504  H   0.64432
 1505  C   1.07868   0.96567   0.86316   1.12896
 1506  H   0.81508
 1507  C   1.05975   0.97996   0.99670   1.07637
 1508  H   0.84642
 1509  C   1.05205   1.15821   1.06257   1.17608
 1510  H   0.84450
 1511  H   0.84451
 1512  H   0.84180
 1513  C   1.04780   0.99989   1.12971   1.08512
 1514  H   0.86665
 1515  H   0.85363
 1516  C   1.04900   1.11604   1.12966   1.14927
 1517  H   0.85851
 1518  H   0.85740
 1519  H   0.84125
 1520  C   1.07239   0.85964   0.73791   0.75018
 1521  O   1.87626   1.57618   1.55615   1.67374
 1522  N   1.54215   1.18493   1.41746   1.37457
 1523  H   0.66206
 1524  C   1.07134   0.87896   1.16323   1.10823
 1525  H   0.84318
 1526  H   0.83230
 1527  H   0.83427
 1528  H   0.82781
 1529  C   1.10748   0.84817   0.73333   0.82090
 1530  O   1.88533   1.81644   1.62641   1.36676
 1531  N   1.53776   1.25349   1.40298   1.30526
 1532  H   0.64790
 1533  C   1.05917   0.89146   1.04086   1.02439
 1534  H   0.81944
 1535  C   1.06062   1.03210   1.11498   1.11420
 1536  H   0.82486
 1537  H   0.84739
 1538  C   1.04448   0.99038   0.96303   1.06036
 1539  H   0.87987
 1540  C   1.05448   1.16248   1.06823   1.18060
 1541  H   0.83879
 1542  H   0.84794
 1543  H   0.85379
 1544  C   1.05253   1.12350   1.17278   1.10795
 1545  H   0.85733
 1546  H   0.84702
 1547  H   0.84149
 1548  C   1.07845   0.72955   0.86442   0.77481
 1549  O   1.88175   1.57710   1.45176   1.73561
 1550  N   1.54007   1.57175   1.21314   1.19361
 1551  H   0.66041
 1552  C   1.07170   1.02178   0.93427   0.96027
 1553  H   0.81205
 1554  C   1.05670   1.17026   1.07929   0.99296
 1555  H   0.82467
 1556  H   0.82642
 1557  C   1.05680   1.12987   1.08832   1.03615
 1558  H   0.85359
 1559  H   0.82381
 1560  C   1.06368   1.15814   0.94512   0.90237
 1561  H   0.81568
 1562  H   0.83640
 1563  N   1.52413   1.16125   1.42462   1.39829
 1564  H   0.63936
 1565  C   0.99154   0.79152   0.81259   0.81870
 1566  N   1.51737   1.11697   1.46806   1.48670
 1567  H   0.65522
 1568  H   0.63911
 1569  N   1.50861   1.25116   1.39995   1.41128
 1570  H   0.64166
 1571  H   0.64062
 1572  C   1.08219   0.87358   0.77344   0.74735
 1573  O   1.88835   1.60507   1.59500   1.52067
 1574  N   1.53996   1.17429   1.27246   1.51845
 1575  H   0.65803
 1576  C   1.07423   0.85741   1.08553   1.03746
 1577  H   0.82126
 1578  C   1.06138   1.16402   1.09782   0.98433
 1579  H   0.84255
 1580  H   0.83835
 1581  C   1.04759   1.08159   0.95991   0.94841
 1582  H   0.86927
 1583  C   1.05588   1.17148   1.16289   1.07765
 1584  H   0.85404
 1585  H   0.86092
 1586  H   0.84733
 1587  C   1.05672   1.15723   1.09305   1.15814
 1588  H   0.85013
 1589  H   0.86057
 1590  H   0.84750
 1591  C   1.08314   0.71427   0.76153   0.70254
 1592  O   1.88390   1.46813   1.86980   1.62378
 1593  O   1.88756   1.54749   1.59460   1.80332

 **********************
 *                    *
 * JOB ENDED NORMALLY *
 *                    *
 **********************



 TOTAL JOB TIME:            40.03 SECONDS

 == MOPAC DONE ==
