 *******************************************************************************
 **                                                                           **
 **                              MOPAC v23.2.2                                **
 **                                                                           **
 *******************************************************************************
 **          Digital Object Identifier (DOI): 10.5281/zenodo.6511958          **
 **    Visit the DOI location for information on how to cite this program.    **
 *******************************************************************************

                              PM7 CALCULATION RESULTS

 *******************************************************************************
 *  CALCULATION DONE: (MAX THREADS = 24)             Thu Jan 22 19:51:15 2026  *
 *  PM7        - The PM7 Hamiltonian to be used
 *
 *
 *
 *                 CHARGE ON SYSTEM = +2
 *
 *
 *
 *  EPS=78.4   - USE ANDREAS KLAMT'S COSMO IMPLICIT SOLVATION MODEL
 *  XYZ        - CARTESIAN COORDINATE SYSTEM TO BE USED
 *  1SCF       - DO 1 SCF AND THEN STOP 
 *  T=         - A TIME OF 172800.0 SECONDS REQUESTED
 *  DUMP=N     - RESTART FILE WRITTEN EVERY 7200.0 SECONDS REQUESTED
 *******************************************************************************
PM7 1SCF XYZ CHARGE=2 EPS=78.4


   ATOM   CHEMICAL          X               Y               Z
  NUMBER   SYMBOL      (ANGSTROMS)     (ANGSTROMS)     (ANGSTROMS)

     1       H         71.69100000  *  165.23700000  * -45.36000000  *
     2       C         70.72700000  *  165.64400000  * -45.02500000  *
     3       O         70.67100000  *  166.69300000  * -44.40000000  *
     4       N         69.64800000  *  164.94600000  * -45.35400000  *
     5       H         69.74300000  *  164.08600000  * -45.86500000  *
     6       C         68.31800000  *  165.37700000  * -44.95100000  *
     7       H         68.30400000  *  166.44500000  * -44.75000000  *
     8       C         67.27900000  *  165.08100000  * -46.05800000  *
     9       H         67.27200000  *  164.02200000  * -46.29800000  *
    10       C         65.89200000  *  165.46600000  * -45.59200000  *
    11       H         65.46400000  *  166.22900000  * -46.24500000  *
    12       H         65.23700000  *  164.60600000  * -45.62700000  *
    13       H         65.87600000  *  165.89500000  * -44.58400000  *
    14       C         67.63700000  *  165.85600000  * -47.31700000  *
    15       H         68.59400000  *  165.52900000  * -47.70800000  *
    16       H         66.87900000  *  165.66900000  * -48.07700000  *
    17       H         67.68800000  *  166.92100000  * -47.10100000  *
    18       C         67.91500000  *  164.66400000  * -43.65700000  *
    19       O         67.55300000  *  165.30600000  * -42.67600000  *
    20       N         67.98400000  *  163.33800000  * -43.65800000  *
    21       H         68.28400000  *  162.85200000  * -44.48600000  *
    22       C         67.62300000  *  162.54400000  * -42.48700000  *
    23       H         67.90600000  *  163.07600000  * -41.58100000  *
    24       C         66.12800000  *  162.23500000  * -42.45900000  *
    25       H         65.92600000  *  161.47400000  * -43.20900000  *
    26       H         65.88500000  *  161.80700000  * -41.48800000  *
    27       C         65.21300000  *  163.39800000  * -42.74000000  *
    28       H         65.33100000  *  164.15700000  * -41.96400000  *
    29       H         65.45900000  *  163.81400000  * -43.69700000  *
    30       C         63.76600000  *  162.97200000  * -42.82400000  *
    31       O         63.44700000  *  162.11400000  * -43.67900000  *
    32       O         62.94800000  *  163.49400000  * -42.03400000  *
    33       C         68.34700000  *  161.22200000  * -42.57700000  *
    34       O         68.73000000  *  160.78800000  * -43.66100000  *
    35       N         68.52400000  *  160.57500000  * -41.43500000  *
    36       H         68.03000000  *  160.89100000  * -40.60600000  *
    37       C         69.17300000  *  159.28200000  * -41.42100000  *
    38       H         69.95100000  *  159.22100000  * -42.17800000  *
    39       C         69.75600000  *  159.01000000  * -40.03200000  *
    40       H         70.21900000  *  159.94300000  * -39.71800000  *
    41       H         68.96300000  *  158.79100000  * -39.31600000  *
    42       C         70.79800000  *  157.89600000  * -39.98300000  *
    43       H         70.31100000  *  156.94100000  * -40.17400000  *
    44       H         71.53800000  *  158.07300000  * -40.76900000  *
    45       C         71.50100000  *  157.83200000  * -38.61800000  *
    46       H         70.74900000  *  157.59000000  * -37.86000000  *
    47       H         72.23100000  *  157.01800000  * -38.63800000  *
    48       C         72.18600000  *  159.16200000  * -38.26900000  *
    49       H         72.83200000  *  159.42500000  * -39.10900000  *
    50       H         71.41200000  *  159.93100000  * -38.15600000  *
    51       N         73.00000000  *  159.10500000  * -37.02500000  *
    52       H         73.70000000  *  158.37000000  * -37.07400000  *
    53       H         73.43800000  *  159.98800000  * -36.79300000  *
    54       H         72.39100000  *  158.85400000  * -36.25100000  *
    55       C         68.06200000  *  158.28700000  * -41.74800000  *
    56       O         67.16300000  *  158.08100000  * -40.94600000  *
    57       N         68.06700000  *  157.72000000  * -42.95700000  *
    58       H         68.88000000  *  157.87600000  * -43.53200000  *
    59       C         67.07900000  *  156.72100000  * -43.41300000  *
    60       H         66.09900000  *  157.19900000  * -43.45400000  *
    61       C         67.43500000  *  156.21500000  * -44.83200000  *
    62       H         68.51700000  *  156.23500000  * -44.94500000  *
    63       C         66.98000000  *  154.77300000  * -45.11900000  *
    64       H         65.90500000  *  154.67100000  * -44.97100000  *
    65       H         67.24700000  *  154.50200000  * -46.13400000  *
    66       H         67.49600000  *  154.06300000  * -44.47200000  *
    67       C         66.83300000  *  157.19900000  * -45.85000000  *
    68       H         65.74600000  *  157.11600000  * -45.84400000  *
    69       H         67.08500000  *  158.20100000  * -45.51800000  *
    70       C         67.34300000  *  157.02900000  * -47.28700000  *
    71       H         67.00800000  *  156.08500000  * -47.70400000  *
    72       H         66.95700000  *  157.83500000  * -47.90800000  *
    73       H         68.42900000  *  157.05600000  * -47.30500000  *
    74       C         66.94500000  *  155.57300000  * -42.41400000  *
    75       O         65.83300000  *  155.19400000  * -42.04100000  *
    76       N         68.07900000  *  155.01300000  * -41.99900000  *
    77       H         68.96500000  *  155.37400000  * -42.33400000  *
    78       C         68.10000000  *  153.85100000  * -41.13000000  *
    79       H         67.64000000  *  154.11000000  * -40.17600000  *
    80       H         67.52400000  *  153.04700000  * -41.58900000  *
    81       C         69.50300000  *  153.33400000  * -40.86100000  *
    82       O         70.50500000  *  153.79300000  * -41.41700000  *
    83       N         69.54200000  *  152.34700000  * -39.98100000  *
    84       H         68.66400000  *  152.00700000  * -39.61300000  *
    85       C         70.75800000  *  151.77100000  * -39.42900000  *
    86       H         71.59700000  *  152.43800000  * -39.63000000  *
    87       C         70.58400000  *  151.66700000  * -37.90400000  *
    88       H         69.73200000  *  151.02700000  * -37.67500000  *
    89       H         71.48500000  *  151.23000000  * -37.49200000  *
    90       C         70.39500000  *  153.04700000  * -37.24700000  *
    91       H         71.24700000  *  153.67800000  * -37.51200000  *
    92       H         69.49600000  *  153.52400000  * -37.64300000  *
    93       C         70.26500000  *  152.96000000  * -35.71800000  *
    94       O         69.39900000  *  152.20700000  * -35.21300000  *
    95       O         70.99700000  *  153.68500000  * -35.00600000  *
    96       C         71.02300000  *  150.43600000  * -40.14200000  *
    97       O         70.35800000  *  149.43000000  * -39.88400000  *
    98       N         71.88900000  *  150.47800000  * -41.16100000  *
    99       H         72.45600000  *  151.30700000  * -41.28200000  *
   100       C         71.93500000  *  149.48200000  * -42.23600000  *
   101       H         70.91700000  *  149.17500000  * -42.48100000  *
   102       H         72.35500000  *  149.96100000  * -43.12000000  *
   103       C         72.75300000  *  148.21800000  * -41.95000000  *
   104       O         73.23700000  *  147.97900000  * -40.84500000  *
   105       N         72.93400000  *  147.40600000  * -42.99500000  *
   106       H         72.47700000  *  147.63900000  * -43.86700000  *
   107       C         73.73600000  *  146.16600000  * -42.99200000  *
   108       H         73.42300000  *  145.54500000  * -42.15200000  *
   109       C         73.51000000  *  145.36800000  * -44.28700000  *
   110       H         74.27300000  *  144.59500000  * -44.38400000  *
   111       C         72.14200000  *  144.69600000  * -44.27800000  *
   112       H         71.34900000  *  145.44400000  * -44.25700000  *
   113       H         72.03800000  *  144.07600000  * -45.16800000  *
   114       H         72.07500000  *  144.04900000  * -43.40400000  *
   115       O         73.58000000  *  146.23700000  * -45.39300000  *
   116       H         73.18300000  *  145.76700000  * -46.16300000  *
   117       C         75.23800000  *  146.39200000  * -42.83300000  *
   118       O         75.86900000  *  145.62500000  * -42.11600000  *
   119       N         75.79800000  *  147.42700000  * -43.47400000  *
   120       H         75.19000000  *  147.94400000  * -44.08900000  *
   121       C         77.25100000  *  147.68100000  * -43.57000000  *
   122       H         77.76800000  *  147.08800000  * -42.81400000  *
   123       C         77.75800000  *  147.22400000  * -44.95200000  *
   124       H         77.36700000  *  147.90500000  * -45.70900000  *
   125       H         78.84600000  *  147.30100000  * -44.97400000  *
   126       C         77.39600000  *  145.80200000  * -45.33000000  *
   127       C         77.76200000  *  144.74600000  * -44.47700000  *
   128       H         78.30300000  *  144.94600000  * -43.56100000  *
   129       C         77.40400000  *  143.42900000  * -44.80000000  *
   130       H         77.66700000  *  142.62800000  * -44.13100000  *
   131       C         76.70600000  *  143.15400000  * -45.99400000  *
   132       O         76.43500000  *  141.86700000  * -46.32800000  *
   133       H         77.07200000  *  141.28900000  * -45.87800000  *
   134       C         76.33000000  *  144.21300000  * -46.84600000  *
   135       H         75.77400000  *  144.01100000  * -47.74600000  *
   136       C         76.68200000  *  145.53500000  * -46.51500000  *
   137       H         76.40000000  *  146.34400000  * -47.17300000  *
   138       C         77.66100000  *  149.14400000  * -43.31300000  *
   139       O         78.77300000  *  149.54500000  * -43.65400000  *
   140       N         76.77300000  *  149.95500000  * -42.73300000  *
   141       H         75.88600000  *  149.57600000  * -42.43100000  *
   142       C         77.00100000  *  151.37900000  * -42.47700000  *
   143       H         77.58400000  *  151.49700000  * -41.56600000  *
   144       H         77.57700000  *  151.79500000  * -43.29400000  *
   145       C         75.69700000  *  152.16300000  * -42.32800000  *
   146       O         74.63900000  *  151.56600000  * -42.10700000  *
   147       N         75.75500000  *  153.49500000  * -42.44900000  *
   148       H         76.58800000  *  153.89400000  * -42.85900000  *
   149       C         74.59200000  *  154.32600000  * -42.21200000  *
   150       H         73.82600000  *  153.78000000  * -41.65800000  *
   151       C         74.95900000  *  155.54800000  * -41.37000000  *
   152       H         75.70700000  *  156.13900000  * -41.89300000  *
   153       C         73.73100000  *  156.40900000  * -41.13300000  *
   154       H         72.94300000  *  155.80300000  * -40.68200000  *
   155       H         73.98600000  *  157.21200000  * -40.45000000  *
   156       H         73.36800000  *  156.84900000  * -42.06500000  *
   157       C         75.54500000  *  155.09600000  * -40.05300000  *
   158       H         76.46000000  *  154.52800000  * -40.19800000  *
   159       H         75.77700000  *  155.95300000  * -39.42300000  *
   160       H         74.80500000  *  154.48400000  * -39.53200000  *
   161       C         74.01900000  *  154.79200000  * -43.53700000  *
   162       O         74.76100000  *  155.18400000  * -44.43700000  *
   163       N         72.69900000  *  154.65600000  * -43.66900000  *
   164       H         72.16900000  *  154.32900000  * -42.86800000  *
   165       C         71.92500000  *  155.10600000  * -44.82800000  *
   166       H         72.58600000  *  155.16600000  * -45.69000000  *
   167       C         70.77600000  *  154.13400000  * -45.16900000  *
   168       H         69.93800000  *  154.31800000  * -44.49700000  *
   169       C         70.31100000  *  154.37100000  * -46.61100000  *
   170       H         71.12200000  *  154.16200000  * -47.30900000  *
   171       H         69.47000000  *  153.71700000  * -46.84100000  *
   172       H         69.99400000  *  155.40400000  * -46.74200000  *
   173       C         71.15500000  *  152.65700000  * -45.01500000  *
   174       H         71.34300000  *  152.42500000  * -43.96600000  *
   175       H         70.32400000  *  152.03400000  * -45.34700000  *
   176       H         72.04300000  *  152.43500000  * -45.60200000  *
   177       C         71.36500000  *  156.49300000  * -44.52900000  *
   178       O         70.65400000  *  156.65200000  * -43.53200000  *
   179       N         71.62500000  *  157.49000000  * -45.37400000  *
   180       H         72.23900000  *  157.32200000  * -46.16900000  *
   181       C         71.01800000  *  158.79600000  * -45.21900000  *
   182       H         70.37900000  *  158.84300000  * -44.33800000  *
   183       C         72.10000000  *  159.86100000  * -45.06900000  *
   184       H         72.79900000  *  159.78100000  * -45.90500000  *
   185       H         71.63400000  *  160.84400000  * -45.14300000  *
   186       C         72.87100000  *  159.84300000  * -43.76800000  *
   187       C         72.34700000  *  160.43100000  * -42.61900000  *
   188       H         71.37700000  *  160.90600000  * -42.66800000  *
   189       C         73.06400000  *  160.45200000  * -41.42500000  *
   190       H         72.63300000  *  160.94600000  * -40.56800000  *
   191       C         74.33000000  *  159.87400000  * -41.37100000  *
   192       O         75.04700000  *  159.90100000  * -40.18700000  *
   193       H         74.69700000  *  160.54100000  * -39.56800000  *
   194       C         74.87500000  *  159.27800000  * -42.50300000  *
   195       H         75.78500000  *  158.71900000  * -42.41900000  *
   196       C         74.14000000  *  159.26700000  * -43.69600000  *
   197       H         74.51800000  *  158.73300000  * -44.56500000  *
   198       C         70.16700000  *  159.17400000  * -46.42900000  *
   199       O         70.41800000  *  158.72400000  * -47.55600000  *
   200       N         69.02600000  *  159.82800000  * -46.21100000  *
   201       H         68.83700000  *  160.13300000  * -45.26300000  *
   202       C         68.29500000  *  160.50800000  * -47.28100000  *
   203       H         68.28500000  *  159.90400000  * -48.19100000  *
   204       C         66.85000000  *  160.83400000  * -46.84900000  *
   205       H         66.33200000  *  159.91200000  * -46.59900000  *
   206       H         66.86700000  *  161.46600000  * -45.95900000  *
   207       C         66.04600000  *  161.53200000  * -47.95700000  *
   208       H         66.52100000  *  162.47800000  * -48.22100000  *
   209       H         66.02700000  *  160.89100000  * -48.84000000  *
   210       C         64.60700000  *  161.80600000  * -47.49100000  *
   211       H         64.15100000  *  160.87400000  * -47.15400000  *
   212       H         64.63300000  *  162.50400000  * -46.65300000  *
   213       C         63.76900000  *  162.39500000  * -48.63300000  *
   214       H         64.28600000  *  163.27500000  * -49.03000000  *
   215       H         63.70500000  *  161.65000000  * -49.43500000  *
   216       N         62.40400000  *  162.77400000  * -48.18100000  *
   217       H         62.43800000  *  163.48300000  * -47.46200000  *
   218       H         61.85700000  *  163.15100000  * -48.94300000  *
   219       H         61.90200000  *  161.98200000  * -47.80600000  *
   220       C         69.10400000  *  161.76200000  * -47.50900000  *
   221       O         69.33600000  *  162.49500000  * -46.55000000  *
   222       N         69.55500000  *  162.00600000  * -48.72500000  *
   223       H         69.34400000  *  161.34200000  * -49.46700000  *
   224       C         70.34900000  *  163.18200000  * -49.01700000  *
   225       H         70.22500000  *  163.93500000  * -48.24000000  *
   226       C         71.81400000  *  162.79200000  * -49.07000000  *
   227       H         71.97800000  *  162.06700000  * -49.86400000  *
   228       H         72.42900000  *  163.67700000  * -49.23900000  *
   229       H         72.10500000  *  162.33200000  * -48.12600000  *
   230       C         69.94400000  *  163.83800000  * -50.32200000  *
   231       O         69.22100000  *  163.25100000  * -51.12800000  *
   232       N         70.40700000  *  165.06400000  * -50.52400000  *
   233       H         70.93200000  *  165.53000000  * -49.79600000  *
   234       C         70.10800000  *  165.77900000  * -51.74600000  *
   235       H         69.54100000  *  165.15900000  * -52.44400000  *
   236       H         69.52200000  *  166.69100000  * -51.53000000  *
   237       H         71.05900000  *  166.04700000  * -52.23900000  *
   238       H         68.08600000  *  164.80700000  * -56.55000000  *
   239       C         68.21200000  *  164.39600000  * -55.53600000  *
   240       O         69.28600000  *  164.50800000  * -54.94200000  *
   241       N         67.13500000  *  163.82300000  * -55.01100000  *
   242       H         66.34000000  *  163.66800000  * -55.61500000  *
   243       C         67.13600000  *  163.21200000  * -53.68800000  *
   244       H         67.86300000  *  163.70700000  * -53.05000000  *
   245       C         65.75500000  *  163.32300000  * -53.02900000  *
   246       H         64.97700000  *  163.06900000  * -53.75000000  *
   247       C         65.64800000  *  162.36600000  * -51.85200000  *
   248       H         66.47200000  *  162.51800000  * -51.15200000  *
   249       H         64.69700000  *  162.53800000  * -51.34700000  *
   250       H         65.65200000  *  161.33900000  * -52.20000000  *
   251       C         65.54000000  *  164.75000000  * -52.56600000  *
   252       H         65.62600000  *  165.42400000  * -53.41600000  *
   253       H         64.53500000  *  164.85100000  * -52.15900000  *
   254       H         66.28400000  *  165.00300000  * -51.81000000  *
   255       C         67.52600000  *  161.76000000  * -53.84700000  *
   256       O         66.97900000  *  161.02800000  * -54.68200000  *
   257       N         68.49600000  *  161.34900000  * -53.04800000  *
   258       H         68.91100000  *  161.99700000  * -52.39100000  *
   259       C         69.01100000  *  159.99200000  * -53.10200000  *
   260       H         68.34600000  *  159.34100000  * -53.67900000  *
   261       C         70.37400000  *  159.97400000  * -53.81600000  *
   262       H         70.77500000  *  158.96500000  * -53.87500000  *
   263       C         70.21400000  *  160.50700000  * -55.21300000  *
   264       H         69.95700000  *  161.56600000  * -55.19000000  *
   265       H         71.15100000  *  160.39100000  * -55.75600000  *
   266       H         69.44200000  *  159.95000000  * -55.73600000  *
   267       C         71.37900000  *  160.85000000  * -53.05700000  *
   268       H         71.56500000  *  160.44500000  * -52.06400000  *
   269       H         72.31500000  *  160.84900000  * -53.61300000  *
   270       H         71.03600000  *  161.88400000  * -52.98400000  *
   271       C         69.19200000  *  159.37200000  * -51.72900000  *
   272       O         69.02000000  *  160.03600000  * -50.68600000  *
   273       N         69.38100000  *  158.05900000  * -51.70300000  *
   274       H         69.45300000  *  157.56300000  * -52.58700000  *
   275       C         69.76000000  *  157.32500000  * -50.51100000  *
   276       H         69.48400000  *  157.89200000  * -49.62300000  *
   277       C         69.00000000  *  156.00700000  * -50.46400000  *
   278       H         69.20800000  *  155.43300000  * -51.36400000  *
   279       H         69.30300000  *  155.43400000  * -49.58800000  *
   280       H         67.93300000  *  156.21700000  * -50.40200000  *
   281       C         71.27700000  *  157.14300000  * -50.53900000  *
   282       O         71.81000000  *  156.46600000  * -51.42400000  *
   283       N         71.97000000  *  157.79100000  * -49.60300000  *
   284       H         71.44500000  *  158.28300000  * -48.88900000  *
   285       C         73.41300000  *  157.73400000  * -49.53500000  *
   286       H         73.80300000  *  157.43200000  * -50.50200000  *
   287       C         73.96100000  *  159.11400000  * -49.18200000  *
   288       H         73.49200000  *  159.84000000  * -49.85100000  *
   289       H         73.62800000  *  159.35800000  * -48.16900000  *
   290       C         75.47300000  *  159.31600000  * -49.26600000  *
   291       H         75.96900000  *  158.63700000  * -48.57100000  *
   292       C         75.94900000  *  159.02000000  * -50.68400000  *
   293       H         75.44100000  *  159.71800000  * -51.34800000  *
   294       H         77.02400000  *  159.18800000  * -50.76300000  *
   295       H         75.74700000  *  157.98700000  * -50.96800000  *
   296       C         75.80400000  *  160.74000000  * -48.87900000  *
   297       H         75.43700000  *  160.94600000  * -47.87600000  *
   298       H         76.88200000  *  160.87900000  * -48.92200000  *
   299       H         75.32000000  *  161.42900000  * -49.57600000  *
   300       C         73.82100000  *  156.71600000  * -48.48500000  *
   301       O         73.39600000  *  156.78100000  * -47.33400000  *
   302       N         74.65100000  *  155.75700000  * -48.88500000  *
   303       H         74.89400000  *  155.73600000  * -49.87400000  *
   304       C         75.13100000  *  154.64500000  * -48.05700000  *
   305       H         74.61000000  *  154.64000000  * -47.09700000  *
   306       C         74.82900000  *  153.33600000  * -48.82000000  *
   307       H         74.26500000  *  153.56600000  * -49.72700000  *
   308       H         75.75700000  *  152.86100000  * -49.13700000  *
   309       C         74.00200000  *  152.30600000  * -48.05100000  *
   310       H         73.13200000  *  152.79200000  * -47.61000000  *
   311       H         73.64000000  *  151.58600000  * -48.78400000  *
   312       C         74.81300000  *  151.57600000  * -46.96400000  *
   313       H         75.83100000  *  151.39700000  * -47.31300000  *
   314       H         74.87100000  *  152.21600000  * -46.07900000  *
   315       C         74.16600000  *  150.23300000  * -46.58400000  *
   316       H         74.65900000  *  149.85700000  * -45.68100000  *
   317       H         73.11800000  *  150.42100000  * -46.32800000  *
   318       N         74.26500000  *  149.22500000  * -47.68500000  *
   319       H         75.21600000  *  148.91100000  * -47.83900000  *
   320       H         73.68000000  *  148.39500000  * -47.50900000  *
   321       H         73.91700000  *  149.59500000  * -48.56200000  *
   322       C         76.62300000  *  154.84200000  * -47.79500000  *
   323       O         77.41600000  *  154.66400000  * -48.71200000  *
   324       N         77.01700000  *  155.22600000  * -46.58100000  *
   325       H         76.29800000  *  155.26800000  * -45.86500000  *
   326       C         78.42200000  *  155.28900000  * -46.15900000  *
   327       H         79.06600000  *  155.59300000  * -46.98900000  *
   328       C         78.56700000  *  156.26000000  * -44.97900000  *
   329       H         78.02700000  *  155.87500000  * -44.10900000  *
   330       H         79.62500000  *  156.33900000  * -44.73000000  *
   331       C         78.01500000  *  157.64300000  * -45.34000000  *
   332       H         78.45100000  *  157.95800000  * -46.27300000  *
   333       H         76.93600000  *  157.57500000  * -45.50000000  *
   334       C         78.25100000  *  158.72500000  * -44.27900000  *
   335       H         77.97800000  *  159.68000000  * -44.73200000  *
   336       H         77.56000000  *  158.53300000  * -43.46900000  *
   337       C         79.67700000  *  158.85000000  * -43.70900000  *
   338       H         80.38400000  *  158.36300000  * -44.39700000  *
   339       H         79.95000000  *  159.91100000  * -43.68600000  *
   340       N         79.78800000  *  158.26900000  * -42.33500000  *
   341       H         79.63700000  *  157.26100000  * -42.37000000  *
   342       H         80.69600000  *  158.42600000  * -41.93200000  *
   343       H         79.10400000  *  158.64600000  * -41.70100000  *
   344       C         78.82300000  *  153.89100000  * -45.72900000  *
   345       O         78.09100000  *  153.31500000  * -44.93700000  *
   346       N         79.90700000  *  153.32000000  * -46.24700000  *
   347       H         80.40500000  *  153.76400000  * -47.01000000  *
   348       C         80.34300000  *  152.02200000  * -45.76800000  *
   349       H         79.49500000  *  151.49800000  * -45.35900000  *
   350       C         80.94400000  *  151.18600000  * -46.89500000  *
   351       H         81.78600000  *  151.78200000  * -47.16900000  *
   352       C         81.42400000  *  149.85200000  * -46.34500000  *
   353       H         80.65600000  *  149.35200000  * -45.75200000  *
   354       H         81.67900000  *  149.19900000  * -47.17900000  *
   355       H         82.34500000  *  149.95700000  * -45.76100000  *
   356       C         79.89700000  *  150.97600000  * -47.99700000  *
   357       H         79.60200000  *  151.87000000  * -48.50000000  *
   358       H         80.28300000  *  150.30500000  * -48.75000000  *
   359       C         78.59100000  *  150.36100000  * -47.52600000  *
   360       H         78.17700000  *  150.90100000  * -46.69000000  *
   361       H         77.89400000  *  150.33700000  * -48.36300000  *
   362       H         78.77100000  *  149.33300000  * -47.20900000  *
   363       C         81.33300000  *  152.07100000  * -44.61400000  *
   364       O         82.16700000  *  152.98000000  * -44.51900000  *
   365       N         81.21100000  *  151.07100000  * -43.74300000  *
   366       H         80.50300000  *  150.36100000  * -43.92800000  *
   367       C         82.04400000  *  150.90200000  * -42.55200000  *
   368       H         81.47500000  *  151.18100000  * -41.66300000  *
   369       H         82.35800000  *  149.86100000  * -42.45900000  *
   370       H         82.94700000  *  151.51400000  * -42.62000000  *
   371       H         81.25700000  *  144.04600000  * -57.89900000  *
   372       C         80.50000000  *  144.84100000  * -57.88800000  *
   373       O         79.71500000  *  144.99000000  * -58.82400000  *
   374       N         80.49900000  *  145.60300000  * -56.79700000  *
   375       H         81.28000000  *  145.52500000  * -56.16600000  *
   376       C         79.57000000  *  146.70600000  * -56.61200000  *
   377       H         78.57500000  *  146.34400000  * -56.42300000  *
   378       C         80.00500000  *  147.61000000  * -55.44200000  *
   379       H         80.89800000  *  148.18000000  * -55.68500000  *
   380       C         78.90600000  *  148.60800000  * -55.12500000  *
   381       H         77.92000000  *  148.14100000  * -55.17600000  *
   382       H         79.04500000  *  148.98700000  * -54.11600000  *
   383       H         78.93800000  *  149.43600000  * -55.83300000  *
   384       C         80.32100000  *  146.76200000  * -54.20900000  *
   385       H         81.19200000  *  146.13400000  * -54.40600000  *
   386       H         80.59400000  *  147.42200000  * -53.38900000  *
   387       C         79.18400000  *  145.87900000  * -53.76500000  *
   388       H         78.77800000  *  145.31100000  * -54.59400000  *
   389       H         79.50900000  *  145.12200000  * -53.06500000  *
   390       H         78.38800000  *  146.48300000  * -53.33500000  *
   391       C         79.54300000  *  147.54500000  * -57.87900000  *
   392       O         78.48200000  *  147.77900000  * -58.45100000  *
   393       N         80.72300000  *  147.98900000  * -58.30900000  *
   394       H         81.55800000  *  147.70100000  * -57.81200000  *
   395       C         80.85900000  *  148.80400000  * -59.51100000  *
   396       H         80.33900000  *  149.74600000  * -59.38600000  *
   397       H         81.92800000  *  148.98500000  * -59.72900000  *
   398       H         80.37800000  *  148.32200000  * -60.38100000  *
   399       H         78.96400000  *  146.08700000  * -61.65600000  *
   400       C         77.87300000  *  146.08700000  * -61.51600000  *
   401       O         77.11500000  *  145.89500000  * -62.46400000  *
   402       N         77.44600000  *  146.31800000  * -60.28000000  *
   403       H         78.13400000  *  146.42500000  * -59.54900000  *
   404       C         76.02800000  *  146.35200000  * -59.94500000  *
   405       H         75.53300000  *  145.47600000  * -60.35900000  *
   406       C         75.84100000  *  146.37400000  * -58.43100000  *
   407       H         76.20500000  *  147.30400000  * -58.01800000  *
   408       H         74.76300000  *  146.35700000  * -58.24200000  *
   409       C         76.47200000  *  145.22200000  * -57.65900000  *
   410       H         77.55000000  *  145.23900000  * -57.74900000  *
   411       C         76.08000000  *  145.34100000  * -56.19200000  *
   412       H         74.99900000  *  145.23000000  * -56.07700000  *
   413       H         76.57300000  *  144.55300000  * -55.62900000  *
   414       H         76.38500000  *  146.30900000  * -55.80100000  *
   415       C         75.99600000  *  143.89000000  * -58.23600000  *
   416       H         76.41500000  *  143.73000000  * -59.22900000  *
   417       H         76.32800000  *  143.07800000  * -57.59100000  *
   418       H         74.90500000  *  143.87400000  * -58.30500000  *
   419       C         75.32200000  *  147.55900000  * -60.54800000  *
   420       O         74.09500000  *  147.56800000  * -60.66200000  *
   421       N         76.08400000  *  148.63100000  * -60.82900000  *
   422       H         77.08200000  *  148.53500000  * -60.67700000  *
   423       C         75.60100000  *  149.83300000  * -61.53400000  *
   424       H         74.83700000  *  150.33500000  * -60.94100000  *
   425       H         76.43800000  *  150.53300000  * -61.75900000  *
   426       H         75.13800000  *  149.54900000  * -62.49200000  *
   427       H         62.79000000  *  145.77200000  * -59.27600000  *
   428       C         63.71000000  *  145.72000000  * -58.67500000  *
   429       O         63.77900000  *  145.02200000  * -57.66400000  *
   430       N         64.72400000  *  146.45200000  * -59.11400000  *
   431       H         64.63800000  *  147.05100000  * -59.92700000  *
   432       C         65.97100000  *  146.53500000  * -58.38100000  *
   433       H         65.88400000  *  146.09200000  * -57.38600000  *
   434       C         67.11600000  *  145.87700000  * -59.11400000  *
   435       H         67.33600000  *  146.42600000  * -60.03000000  *
   436       C         68.35100000  *  145.87800000  * -58.21400000  *
   437       H         68.14700000  *  145.31400000  * -57.31800000  *
   438       H         69.21000000  *  145.44500000  * -58.72400000  *
   439       H         68.64100000  *  146.89000000  * -57.94500000  *
   440       C         66.72800000  *  144.44400000  * -59.47800000  *
   441       H         66.54900000  *  143.87300000  * -58.56400000  *
   442       H         65.81500000  *  144.42400000  * -60.06800000  *
   443       C         67.77400000  *  143.72700000  * -60.29600000  *
   444       H         68.68300000  *  143.57700000  * -59.72200000  *
   445       H         67.37700000  *  142.75300000  * -60.59800000  *
   446       H         68.02300000  *  144.31300000  * -61.18000000  *
   447       C         66.29500000  *  148.01000000  * -58.22000000  *
   448       O         66.21200000  *  148.78000000  * -59.18400000  *
   449       N         66.54600000  *  148.44100000  * -56.98100000  *
   450       H         66.61400000  *  147.75900000  * -56.23000000  *
   451       C         66.88900000  *  149.83700000  * -56.68300000  *
   452       H         66.07500000  *  150.48400000  * -57.00900000  *
   453       C         67.10300000  *  150.04400000  * -55.17700000  *
   454       H         67.89300000  *  149.37600000  * -54.83100000  *
   455       C         67.50200000  *  151.48300000  * -54.83900000  *
   456       H         66.69000000  *  152.17200000  * -55.07100000  *
   457       H         67.73400000  *  151.53700000  * -53.77800000  *
   458       H         68.38800000  *  151.78300000  * -55.39300000  *
   459       C         65.82400000  *  149.73700000  * -54.39300000  *
   460       H         65.54000000  *  148.69400000  * -54.50800000  *
   461       H         66.01100000  *  149.92100000  * -53.34100000  *
   462       H         65.00900000  *  150.37100000  * -54.73600000  *
   463       C         68.14900000  *  150.21200000  * -57.45800000  *
   464       O         69.17600000  *  149.53700000  * -57.34100000  *
   465       N         68.08000000  *  151.28300000  * -58.25100000  *
   466       H         67.22500000  *  151.80400000  * -58.24500000  *
   467       C         69.18900000  *  151.69800000  * -59.08000000  *
   468       H         69.52500000  *  150.81900000  * -59.63900000  *
   469       C         68.73700000  *  152.76800000  * -60.08300000  *
   470       H         67.83400000  *  152.41100000  * -60.57900000  *
   471       H         68.47700000  *  153.68100000  * -59.53700000  *
   472       C         69.79100000  *  153.06900000  * -61.13100000  *
   473       H         70.72100000  *  153.35000000  * -60.64200000  *
   474       H         69.97400000  *  152.16800000  * -61.71600000  *
   475       C         69.35100000  *  154.17900000  * -62.08100000  *
   476       H         68.50200000  *  153.81400000  * -62.66100000  *
   477       H         69.02300000  *  155.05600000  * -61.52200000  *
   478       C         70.49800000  *  154.55900000  * -63.02400000  *
   479       H         71.33900000  *  154.89000000  * -62.40800000  *
   480       H         70.81900000  *  153.66100000  * -63.56600000  *
   481       N         70.11800000  *  155.62600000  * -63.99700000  *
   482       H         69.74700000  *  156.41600000  * -63.48300000  *
   483       H         70.92600000  *  155.93300000  * -64.52500000  *
   484       H         69.41500000  *  155.27800000  * -64.63600000  *
   485       C         70.36000000  *  152.21400000  * -58.25300000  *
   486       O         70.19400000  *  153.07400000  * -57.38700000  *
   487       N         71.53700000  *  151.64500000  * -58.50700000  *
   488       H         71.59600000  *  150.90400000  * -59.18600000  *
   489       C         72.75000000  *  152.07400000  * -57.83600000  *
   490       H         72.53800000  *  152.52600000  * -56.87100000  *
   491       C         73.72700000  *  150.91100000  * -57.67000000  *
   492       H         73.31500000  *  150.22100000  * -56.93700000  *
   493       H         73.77900000  *  150.36900000  * -58.62000000  *
   494       C         75.16700000  *  151.27300000  * -57.28800000  *
   495       H         75.65500000  *  151.80300000  * -58.10000000  *
   496       C         75.18300000  *  152.16500000  * -56.05900000  *
   497       H         74.60800000  *  151.72100000  * -55.25200000  *
   498       H         76.21000000  *  152.29600000  * -55.73500000  *
   499       H         74.78900000  *  153.14000000  * -56.31200000  *
   500       C         75.93300000  *  149.99400000  * -57.01300000  *
   501       H         75.98300000  *  149.42100000  * -57.93300000  *
   502       H         76.94600000  *  150.24200000  * -56.71200000  *
   503       H         75.43500000  *  149.41000000  * -56.23200000  *
   504       C         73.31900000  *  153.11300000  * -58.79500000  *
   505       O         73.76900000  *  152.77900000  * -59.89700000  *
   506       N         73.26700000  *  154.36900000  * -58.37800000  *
   507       H         72.92600000  *  154.57000000  * -57.44900000  *
   508       C         73.73400000  *  155.46600000  * -59.19700000  *
   509       H         73.47500000  *  155.26500000  * -60.23600000  *
   510       C         73.02500000  *  156.74200000  * -58.76000000  *
   511       H         73.45000000  *  157.06300000  * -57.80900000  *
   512       H         73.23600000  *  157.53300000  * -59.48700000  *
   513       C         71.51300000  *  156.60300000  * -58.58700000  *
   514       H         71.27400000  *  155.80900000  * -57.88500000  *
   515       C         70.97400000  *  157.88000000  * -58.01900000  *
   516       H         71.37000000  *  158.74600000  * -58.56000000  *
   517       H         69.88800000  *  157.89100000  * -58.09300000  *
   518       H         71.22100000  *  157.96000000  * -56.96600000  *
   519       C         70.85100000  *  156.29000000  * -59.92300000  *
   520       H         71.28300000  *  155.39700000  * -60.34200000  *
   521       H         69.78900000  *  156.14400000  * -59.75100000  *
   522       H         71.00300000  *  157.12700000  * -60.60700000  *
   523       C         75.24500000  *  155.67800000  * -59.15800000  *
   524       O         75.83900000  *  156.04700000  * -60.17600000  *
   525       N         75.86200000  *  155.44600000  * -57.99600000  *
   526       H         75.29500000  *  155.17900000  * -57.20400000  *
   527       C         77.30800000  *  155.64700000  * -57.82900000  *
   528       H         77.80800000  *  155.40400000  * -58.76600000  *
   529       C         77.60000000  *  157.11700000  * -57.51900000  *
   530       H         76.91700000  *  157.54400000  * -56.80300000  *
   531       H         78.58200000  *  157.17000000  * -57.04800000  *
   532       C         77.65600000  *  157.97500000  * -58.75600000  *
   533       O         78.67800000  *  157.91700000  * -59.48300000  *
   534       O         76.67400000  *  158.70400000  * -59.00000000  *
   535       C         77.97900000  *  154.81700000  * -56.73400000  *
   536       O         77.37100000  *  154.52100000  * -55.70400000  *
   537       N         79.24700000  *  154.47700000  * -56.96600000  *
   538       H         79.69800000  *  154.82400000  * -57.79800000  *
   539       C         80.06100000  *  153.73800000  * -56.00300000  *
   540       H         79.55400000  *  153.69900000  * -55.05200000  *
   541       C         80.36600000  *  152.29800000  * -56.50400000  *
   542       H         79.42700000  *  151.75200000  * -56.56200000  *
   543       C         80.98100000  *  152.34300000  * -57.88400000  *
   544       H         82.06600000  *  152.43300000  * -57.82100000  *
   545       H         80.74600000  *  151.41400000  * -58.37900000  *
   546       H         80.59600000  *  153.14500000  * -58.51000000  *
   547       C         81.29900000  *  151.58800000  * -55.53900000  *
   548       H         80.81100000  *  151.54900000  * -54.57200000  *
   549       H         81.47300000  *  150.57200000  * -55.87800000  *
   550       H         82.25900000  *  152.09200000  * -55.44900000  *
   551       C         81.36500000  *  154.53600000  * -55.81000000  *
   552       O         82.27000000  *  154.48900000  * -56.64700000  *
   553       N         81.45200000  *  155.28200000  * -54.71000000  *
   554       H         80.67600000  *  155.30400000  * -54.06400000  *
   555       C         82.62100000  *  156.11100000  * -54.44300000  *
   556       H         83.20500000  *  156.21800000  * -55.35800000  *
   557       H         82.32200000  *  157.12800000  * -54.14500000  *
   558       H         83.29700000  *  155.73900000  * -53.65600000  *
   559       H         84.58000000  *  155.17100000  * -47.07300000  *
   560       C         84.22500000  *  154.98400000  * -48.09100000  *
   561       O         84.63900000  *  155.65900000  * -49.04200000  *
   562       N         83.35800000  *  153.99100000  * -48.22200000  *
   563       H         83.13600000  *  153.42800000  * -47.41700000  *
   564       C         82.77600000  *  153.65100000  * -49.50600000  *
   565       H         83.37000000  *  154.04700000  * -50.31700000  *
   566       C         82.71900000  *  152.14000000  * -49.66000000  *
   567       H         83.74000000  *  151.87500000  * -49.95700000  *
   568       H         82.64400000  *  151.54600000  * -48.78400000  *
   569       C         81.82600000  *  151.61900000  * -50.77900000  *
   570       H         80.79100000  *  151.88400000  * -50.58700000  *
   571       C         82.25800000  *  152.23100000  * -52.09200000  *
   572       H         83.31100000  *  152.49100000  * -52.08900000  *
   573       H         82.09300000  *  151.51300000  * -52.88400000  *
   574       H         81.65400000  *  153.10900000  * -52.31200000  *
   575       C         81.89900000  *  150.09400000  * -50.82200000  *
   576       H         81.91300000  *  149.66400000  * -49.82700000  *
   577       H         81.05200000  *  149.70600000  * -51.39100000  *
   578       H         82.82500000  *  149.80300000  * -51.32100000  *
   579       C         81.36700000  *  154.23200000  * -49.54800000  *
   580       O         80.51800000  *  153.85700000  * -48.74500000  *
   581       N         81.13100000  *  155.16100000  * -50.46700000  *
   582       H         81.84500000  *  155.34800000  * -51.16200000  *
   583       C         79.82200000  *  155.78100000  * -50.60800000  *
   584       H         79.27400000  *  155.67000000  * -49.68700000  *
   585       C         79.96700000  *  157.27800000  * -50.86800000  *
   586       H         80.42300000  *  157.50400000  * -51.79700000  *
   587       H         78.95400000  *  157.66400000  * -50.98900000  *
   588       C         80.57600000  *  158.04300000  * -49.72300000  *
   589       C         79.79300000  *  158.48000000  * -48.65600000  *
   590       H         78.73500000  *  158.25400000  * -48.66900000  *
   591       C         80.35600000  *  159.18600000  * -47.59400000  *
   592       H         79.75300000  *  159.56200000  * -46.79700000  *
   593       C         81.71600000  *  159.45200000  * -47.58700000  *
   594       O         82.27600000  *  160.12500000  * -46.52100000  *
   595       H         83.20600000  *  160.30800000  * -46.74500000  *
   596       C         82.51400000  *  159.02600000  * -48.63700000  *
   597       H         83.58200000  *  159.23300000  * -48.65000000  *
   598       C         81.94100000  *  158.32800000  * -49.69800000  *
   599       H         82.57400000  *  157.98100000  * -50.50200000  *
   600       C         79.04800000  *  155.15800000  * -51.76500000  *
   601       O         79.54400000  *  155.08000000  * -52.88800000  *
   602       N         77.86300000  *  154.62200000  * -51.49500000  *
   603       H         77.53600000  *  154.64400000  * -50.53500000  *
   604       C         76.98100000  *  154.05500000  * -52.51400000  *
   605       H         77.50500000  *  154.00400000  * -53.46100000  *
   606       C         76.54400000  *  152.62300000  * -52.15900000  *
   607       H         75.85700000  *  152.66700000  * -51.32200000  *
   608       H         75.99600000  *  152.22200000  * -53.01300000  *
   609       C         77.67900000  *  151.64900000  * -51.80400000  *
   610       H         78.18900000  *  151.98600000  * -50.90100000  *
   611       C         77.10800000  *  150.25600000  * -51.54500000  *
   612       H         76.62200000  *  149.87500000  * -52.44600000  *
   613       H         77.91000000  *  149.57500000  * -51.25700000  *
   614       H         76.38100000  *  150.30100000  * -50.73600000  *
   615       C         78.69100000  *  151.53600000  * -52.93700000  *
   616       H         79.21100000  *  152.48200000  * -53.05800000  *
   617       H         79.42700000  *  150.77300000  * -52.69200000  *
   618       H         78.18400000  *  151.27700000  * -53.86700000  *
   619       C         75.78500000  *  154.98500000  * -52.67200000  *
   620       O         75.10000000  *  155.25800000  * -51.68300000  *
   621       N         75.54700000  *  155.50800000  * -53.87800000  *
   622       H         76.14500000  *  155.25500000  * -54.66000000  *
   623       C         74.40900000  *  156.37500000  * -54.09400000  *
   624       H         73.97600000  *  156.70200000  * -53.15000000  *
   625       C         74.83400000  *  157.63700000  * -54.81800000  *
   626       H         75.25500000  *  157.34500000  * -55.76600000  *
   627       C         73.61400000  *  158.52200000  * -55.10900000  *
   628       H         73.11700000  *  158.76900000  * -54.17500000  *
   629       H         73.94100000  *  159.43100000  * -55.61500000  *
   630       H         72.91600000  *  158.00900000  * -55.76200000  *
   631       C         75.84000000  *  158.38200000  * -53.94900000  *
   632       H         75.28100000  *  158.78400000  * -53.13000000  *
   633       H         76.65600000  *  157.75800000  * -53.60500000  *
   634       H         76.26100000  *  159.20400000  * -54.52500000  *
   635       C         73.31400000  *  155.64400000  * -54.85300000  *
   636       O         73.49500000  *  155.22100000  * -55.99400000  *
   637       N         72.19900000  *  155.40500000  * -54.16800000  *
   638       H         72.13100000  *  155.75900000  * -53.21800000  *
   639       C         71.01500000  *  154.74200000  * -54.70800000  *
   640       H         71.26500000  *  154.27000000  * -55.65400000  *
   641       C         70.54500000  *  153.65700000  * -53.73500000  *
   642       H         70.38500000  *  154.10700000  * -52.75600000  *
   643       H         69.58000000  *  153.28700000  * -54.07500000  *
   644       C         71.48400000  *  152.47500000  * -53.58200000  *
   645       C         71.38900000  *  151.37900000  * -54.46200000  *
   646       H         70.67100000  *  151.39000000  * -55.26900000  *
   647       C         72.22000000  *  150.25800000  * -54.29000000  *
   648       H         72.13500000  *  149.41200000  * -54.96000000  *
   649       C         73.15500000  *  150.23100000  * -53.24200000  *
   650       H         73.79500000  *  149.36700000  * -53.10900000  *
   651       C         73.25700000  *  151.32600000  * -52.36600000  *
   652       H         73.96700000  *  151.29800000  * -51.55400000  *
   653       C         72.42800000  *  152.44900000  * -52.53700000  *
   654       H         72.50800000  *  153.28800000  * -51.85800000  *
   655       C         69.89100000  *  155.75300000  * -54.95600000  *
   656       O         69.74200000  *  156.72000000  * -54.20900000  *
   657       N         69.08000000  *  155.53900000  * -55.99400000  *
   658       H         69.24100000  *  154.71600000  * -56.56600000  *
   659       C         67.81900000  *  156.28100000  * -56.15900000  *
   660       H         68.06400000  *  157.33100000  * -56.32600000  *
   661       C         67.05100000  *  155.77600000  * -57.39400000  *
   662       H         66.18200000  *  156.41900000  * -57.53100000  *
   663       H         67.69100000  *  155.87000000  * -58.27300000  *
   664       C         66.57900000  *  154.31800000  * -57.26800000  *
   665       H         67.45200000  *  153.67500000  * -57.15100000  *
   666       H         65.96700000  *  154.21300000  * -56.37700000  *
   667       C         65.73100000  *  153.82300000  * -58.44200000  *
   668       O         65.25800000  *  154.63400000  * -59.27100000  *
   669       O         65.49800000  *  152.59400000  * -58.50000000  *
   670       C         66.95500000  *  156.19200000  * -54.88400000  *
   671       O         66.86000000  *  155.12900000  * -54.27200000  *
   672       N         66.33000000  *  157.29000000  * -54.45200000  *
   673       H         66.39700000  *  158.14500000  * -54.98500000  *
   674       C         65.44800000  *  157.27300000  * -53.28000000  *
   675       H         65.91800000  *  156.67600000  * -52.49700000  *
   676       C         65.29800000  *  158.69800000  * -52.74200000  *
   677       H         66.28600000  *  159.07000000  * -52.47200000  *
   678       H         64.90400000  *  159.33700000  * -53.53300000  *
   679       C         64.39900000  *  158.81400000  * -51.52600000  *
   680       C         63.05200000  *  159.20000000  * -51.67200000  *
   681       H         62.65300000  *  159.42200000  * -52.65200000  *
   682       C         62.21700000  *  159.28700000  * -50.54400000  *
   683       H         61.18100000  *  159.57700000  * -50.66100000  *
   684       C         62.72600000  *  158.99000000  * -49.26700000  *
   685       H         62.08000000  *  159.04300000  * -48.40100000  *
   686       C         64.07400000  *  158.62000000  * -49.11800000  *
   687       H         64.46600000  *  158.39300000  * -48.13700000  *
   688       C         64.90900000  *  158.52800000  * -50.24600000  *
   689       H         65.94200000  *  158.23000000  * -50.13000000  *
   690       C         64.08000000  *  156.64200000  * -53.59700000  *
   691       O         63.43600000  *  157.02300000  * -54.57900000  *
   692       N         63.60900000  *  155.73000000  * -52.73900000  *
   693       H         64.21400000  *  155.44100000  * -51.97700000  *
   694       C         62.22600000  *  155.22800000  * -52.73200000  *
   695       H         61.66000000  *  155.71500000  * -53.52800000  *
   696       C         62.17800000  *  153.70900000  * -52.96600000  *
   697       H         62.97900000  *  153.22400000  * -52.40900000  *
   698       H         61.23000000  *  153.34500000  * -52.56700000  *
   699       C         62.24500000  *  153.32200000  * -54.45400000  *
   700       H         61.73300000  *  154.07700000  * -55.05000000  *
   701       C         63.68800000  *  153.19500000  * -54.93900000  *
   702       H         64.23000000  *  152.48500000  * -54.31800000  *
   703       H         63.70800000  *  152.87500000  * -55.97900000  *
   704       H         64.18100000  *  154.16300000  * -54.87300000  *
   705       C         61.53600000  *  151.98900000  * -54.69500000  *
   706       H         60.51700000  *  152.03100000  * -54.30600000  *
   707       H         61.47600000  *  151.79600000  * -55.76400000  *
   708       H         62.07200000  *  151.17700000  * -54.20800000  *
   709       C         61.51900000  *  155.59400000  * -51.42200000  *
   710       O         62.14300000  *  155.71300000  * -50.37100000  *
   711       N         60.20900000  *  155.81400000  * -51.49800000  *
   712       H         59.75400000  *  155.69200000  * -52.39500000  *
   713       C         59.44400000  *  156.51200000  * -50.46300000  *
   714       H         59.97900000  *  157.43300000  * -50.22400000  *
   715       C         58.08300000  *  156.91500000  * -51.04300000  *
   716       H         57.43900000  *  156.03500000  * -51.09200000  *
   717       H         57.63900000  *  157.63400000  * -50.36100000  *
   718       C         58.13700000  *  157.54100000  * -52.41800000  *
   719       N         58.22400000  *  156.84000000  * -53.62500000  *
   720       C         58.29100000  *  157.77400000  * -54.58900000  *
   721       H         58.37000000  *  157.56900000  * -55.65100000  *
   722       N         58.25600000  *  159.00500000  * -54.05100000  *
   723       H         58.29600000  *  159.87300000  * -54.57700000  *
   724       C         58.16500000  *  158.87900000  * -52.68300000  *
   725       H         58.13200000  *  159.68000000  * -51.95400000  *
   726       C         59.28100000  *  155.75900000  * -49.13000000  *
   727       O         59.15100000  *  156.40700000  * -48.09000000  *
   728       N         59.27700000  *  154.42000000  * -49.13600000  *
   729       H         59.38500000  *  153.94600000  * -50.02500000  *
   730       C         59.01400000  *  153.58000000  * -47.95400000  *
   731       H         59.51700000  *  154.02600000  * -47.09400000  *
   732       C         57.49100000  *  153.58400000  * -47.68500000  *
   733       H         57.18000000  *  154.61300000  * -47.50100000  *
   734       H         56.96200000  *  153.22900000  * -48.57100000  *
   735       C         57.06500000  *  152.73200000  * -46.47900000  *
   736       H         56.94600000  *  151.69900000  * -46.80000000  *
   737       H         57.84100000  *  152.77600000  * -45.71500000  *
   738       C         55.76600000  *  153.20800000  * -45.83800000  *
   739       O         55.76200000  *  153.89500000  * -44.82900000  *
   740       N         54.61900000  *  152.86300000  * -46.38300000  *
   741       H         53.78200000  *  153.19500000  * -45.92700000  *
   742       H         54.59500000  *  152.32300000  * -47.22900000  *
   743       C         59.57800000  *  152.15300000  * -48.12700000  *
   744       O         59.72800000  *  151.68200000  * -49.25200000  *
   745       N         59.89000000  *  151.45700000  * -47.02600000  *
   746       H         59.74200000  *  151.88600000  * -46.12600000  *
   747       C         60.26000000  *  150.03100000  * -47.03500000  *
   748       H         60.58700000  *  149.77100000  * -48.03700000  *
   749       C         61.44900000  *  149.75600000  * -46.09800000  *
   750       H         61.76400000  *  148.72100000  * -46.24300000  *
   751       H         62.28800000  *  150.38600000  * -46.39100000  *
   752       C         61.13100000  *  149.97400000  * -44.61600000  *
   753       O         60.32100000  *  149.19800000  * -44.06800000  *
   754       O         61.71300000  *  150.90200000  * -44.00800000  *
   755       C         59.07100000  *  149.10800000  * -46.70600000  *
   756       O         58.05400000  *  149.53700000  * -46.14500000  *
   757       N         59.19100000  *  147.81900000  * -47.04800000  *
   758       H         60.03800000  *  147.50900000  * -47.52500000  *
   759       C         58.10100000  *  146.88000000  * -46.84100000  *
   760       H         57.21800000  *  147.32500000  * -47.29300000  *
   761       C         58.41200000  *  145.57700000  * -47.59200000  *
   762       H         58.61300000  *  145.80400000  * -48.64400000  *
   763       H         59.28800000  *  145.12100000  * -47.15800000  *
   764       C         57.28700000  *  144.52700000  * -47.51900000  *
   765       H         57.05600000  *  144.28000000  * -46.48700000  *
   766       C         56.00700000  *  145.04400000  * -48.19600000  *
   767       H         56.23500000  *  145.37800000  * -49.20200000  *
   768       H         55.26800000  *  144.24500000  * -48.23100000  *
   769       H         55.59500000  *  145.87000000  * -47.62900000  *
   770       C         57.76800000  *  143.24900000  * -48.17500000  *
   771       H         58.61500000  *  142.85400000  * -47.62000000  *
   772       H         56.97300000  *  142.50400000  * -48.17100000  *
   773       H         58.06400000  *  143.44500000  * -49.20700000  *
   774       C         57.76400000  *  146.61300000  * -45.36900000  *
   775       O         56.60900000  *  146.37600000  * -45.03000000  *
   776       N         58.75700000  *  146.67700000  * -44.48800000  *
   777       H         59.64000000  *  147.08600000  * -44.79000000  *
   778       C         58.49100000  *  146.46700000  * -43.07300000  *
   779       H         57.97900000  *  145.55100000  * -42.87200000  *
   780       C         59.78200000  *  146.47800000  * -42.25400000  *
   781       H         60.44800000  *  145.70000000  * -42.62000000  *
   782       H         60.28600000  *  147.44000000  * -42.35600000  *
   783       C         59.49200000  *  146.22900000  * -40.76500000  *
   784       H         58.94200000  *  147.08300000  * -40.37400000  *
   785       H         58.87100000  *  145.33200000  * -40.67600000  *
   786       C         60.74500000  *  146.03800000  * -39.93500000  *
   787       H         61.36100000  *  145.25900000  * -40.37900000  *
   788       H         61.30800000  *  146.97100000  * -39.90700000  *
   789       C         60.37600000  *  145.60700000  * -38.51700000  *
   790       H         59.98500000  *  144.58900000  * -38.53700000  *
   791       H         61.27900000  *  145.61300000  * -37.90300000  *
   792       N         59.34600000  *  146.53100000  * -37.94700000  *
   793       H         58.44600000  *  146.48100000  * -38.44300000  *
   794       H         59.09000000  *  146.27800000  * -37.00400000  *
   795       H         59.61300000  *  147.50600000  * -37.97800000  *
   796       C         57.55800000  *  147.53800000  * -42.51200000  *
   797       O         56.61300000  *  147.23400000  * -41.78300000  *
   798       N         57.83700000  *  148.81000000  * -42.80700000  *
   799       H         58.67400000  *  148.99700000  * -43.36400000  *
   800       C         57.01800000  *  149.93500000  * -42.34100000  *
   801       H         56.91300000  *  149.86100000  * -41.25700000  *
   802       C         57.72900000  *  151.25700000  * -42.66600000  *
   803       H         58.75500000  *  151.20000000  * -42.29600000  *
   804       H         57.75900000  *  151.40000000  * -43.74700000  *
   805       C         57.03700000  *  152.45600000  * -42.00000000  *
   806       H         56.04600000  *  152.58900000  * -42.43400000  *
   807       H         56.92600000  *  152.25800000  * -40.93200000  *
   808       C         57.85300000  *  153.74400000  * -42.18100000  *
   809       H         58.82100000  *  153.62500000  * -41.69000000  *
   810       H         58.01500000  *  153.92800000  * -43.24400000  *
   811       C         57.10400000  *  154.92900000  * -41.56100000  *
   812       H         56.14500000  *  155.04400000  * -42.07600000  *
   813       H         56.89400000  *  154.70100000  * -40.51200000  *
   814       N         57.88700000  *  156.18700000  * -41.65600000  *
   815       H         58.08200000  *  156.42700000  * -42.61700000  *
   816       H         57.38200000  *  156.95900000  * -41.24500000  *
   817       H         58.76700000  *  156.10700000  * -41.16900000  *
   818       C         55.61000000  *  149.84500000  * -42.92700000  *
   819       O         54.63400000  *  150.09500000  * -42.22500000  *
   820       N         55.49500000  *  149.42600000  * -44.18900000  *
   821       H         56.35000000  *  149.26300000  * -44.71300000  *
   822       C         54.20500000  *  149.26000000  * -44.85200000  *
   823       H         53.62600000  *  150.17500000  * -44.72500000  *
   824       C         54.41000000  *  148.98800000  * -46.34000000  *
   825       H         54.98900000  *  149.80200000  * -46.77700000  *
   826       H         55.00200000  *  148.07700000  * -46.45200000  *
   827       C         53.12600000  *  148.85300000  * -47.10800000  *
   828       C         52.23100000  *  149.92200000  * -47.18600000  *
   829       H         52.46300000  *  150.85600000  * -46.69900000  *
   830       C         51.01500000  *  149.79500000  * -47.88400000  *
   831       H         50.32500000  *  150.62800000  * -47.91800000  *
   832       C         50.69700000  *  148.60300000  * -48.50200000  *
   833       H         49.75200000  *  148.50200000  * -49.02000000  *
   834       C         51.58700000  *  147.52100000  * -48.43200000  *
   835       H         51.33500000  *  146.58300000  * -48.91200000  *
   836       C         52.79500000  *  147.65400000  * -47.73300000  *
   837       H         53.46700000  *  146.81000000  * -47.67200000  *
   838       C         53.37400000  *  148.12200000  * -44.22700000  *
   839       O         52.16900000  *  148.28300000  * -44.00900000  *
   840       N         54.01600000  *  146.98100000  * -43.96600000  *
   841       H         55.00900000  *  146.90600000  * -44.17900000  *
   842       C         53.33800000  *  145.83600000  * -43.34100000  *
   843       H         52.47600000  *  145.52800000  * -43.93400000  *
   844       C         54.29200000  *  144.65000000  * -43.17000000  *
   845       H         55.15800000  *  145.02700000  * -42.63600000  *
   846       H         53.80700000  *  143.89200000  * -42.54700000  *
   847       C         54.73100000  *  144.00400000  * -44.46100000  *
   848       H         53.84700000  *  143.61400000  * -44.95900000  *
   849       H         55.19200000  *  144.69400000  * -45.15000000  *
   850       S         55.79700000  *  142.58100000  * -44.15400000  *
   851       C         57.05400000  *  143.29200000  * -43.18800000  *
   852       H         56.67800000  *  143.65800000  * -42.23500000  *
   853       H         57.80700000  *  142.53400000  * -42.98200000  *
   854       H         57.44300000  *  144.07900000  * -43.80900000  *
   855       C         52.84400000  *  146.26000000  * -41.95900000  *
   856       O         51.68200000  *  146.03200000  * -41.61400000  *
   857       N         53.72600000  *  146.88400000  * -41.17900000  *
   858       H         54.70100000  *  146.95700000  * -41.45300000  *
   859       C         53.34300000  *  147.35100000  * -39.84600000  *
   860       H         53.03400000  *  146.49700000  * -39.23800000  *
   861       C         54.50500000  *  148.07700000  * -39.15700000  *
   862       H         54.94100000  *  148.81500000  * -39.83000000  *
   863       H         54.12400000  *  148.60600000  * -38.28400000  *
   864       C         55.58400000  *  147.11500000  * -38.68500000  *
   865       O         55.26200000  *  145.90900000  * -38.57600000  *
   866       O         56.73300000  *  147.55200000  * -38.41700000  *
   867       C         52.15000000  *  148.27900000  * -39.96300000  *
   868       O         51.20300000  *  148.18000000  * -39.18700000  *
   869       N         52.18300000  *  149.16200000  * -40.95500000  *
   870       H         53.01600000  *  149.23700000  * -41.51800000  *
   871       C         51.08600000  *  150.10000000  * -41.17300000  *
   872       H         50.93100000  *  150.67400000  * -40.25800000  *
   873       C         51.42800000  *  151.06800000  * -42.31500000  *
   874       H         51.45500000  *  150.53900000  * -43.26600000  *
   875       H         50.66000000  *  151.83800000  * -42.36800000  *
   876       H         52.39300000  *  151.53600000  * -42.12800000  *
   877       C         49.78900000  *  149.37000000  * -41.49900000  *
   878       O         48.71100000  *  149.83600000  * -41.15600000  *
   879       N         49.90500000  *  148.22900000  * -42.16400000  *
   880       H         50.83800000  *  147.88500000  * -42.38200000  *
   881       C         48.74000000  *  147.45400000  * -42.57500000  *
   882       H         47.85700000  *  148.08600000  * -42.62800000  *
   883       H         48.90600000  *  147.02300000  * -43.58600000  *
   884       H         48.52600000  *  146.61900000  * -41.88800000  *
   885       H         72.54500000  *  137.05800000  * -55.15200000  *
   886       C         72.38600000  *  137.90500000  * -54.47400000  *
   887       O         73.28300000  *  138.71900000  * -54.28600000  *
   888       N         71.20100000  *  138.01500000  * -53.89800000  *
   889       H         70.47300000  *  137.31400000  * -54.05700000  *
   890       C         70.96800000  *  139.10000000  * -52.94900000  *
   891       H         71.50000000  *  140.00600000  * -53.22900000  *
   892       C         69.47700000  *  139.40500000  * -52.82500000  *
   893       H         69.09300000  *  139.71900000  * -53.79200000  *
   894       H         68.93000000  *  138.50600000  * -52.53300000  *
   895       C         69.17800000  *  140.45400000  * -51.81200000  *
   896       N         69.23000000  *  140.42300000  * -50.45900000  *
   897       C         68.94700000  *  141.69100000  * -50.01400000  *
   898       H         68.96900000  *  142.01200000  * -48.98400000  *
   899       N         68.72400000  *  142.47200000  * -51.05500000  *
   900       H         68.47200000  *  143.44500000  * -51.00700000  *
   901       C         68.85400000  *  141.75000000  * -52.15500000  *
   902       H         68.77100000  *  142.12600000  * -53.16500000  *
   903       C         71.52100000  *  138.65700000  * -51.58300000  *
   904       O         72.28000000  *  139.38000000  * -50.94700000  *
   905       N         71.11400000  *  137.47100000  * -51.14500000  *
   906       H         70.37100000  *  137.01600000  * -51.66500000  *
   907       C         71.55500000  *  136.88000000  * -49.87700000  *
   908       H         71.18200000  *  135.84900000  * -49.87900000  *
   909       C         73.07600000  *  136.85300000  * -49.83700000  *
   910       H         73.53100000  *  137.83300000  * -49.86900000  *
   911       H         73.36600000  *  136.47900000  * -48.85100000  *
   912       C         73.64700000  *  135.85900000  * -50.81700000  *
   913       H         73.29800000  *  134.87100000  * -50.67200000  *
   914       H         73.21600000  *  136.10500000  * -51.78700000  *
   915       C         75.11700000  *  136.08400000  * -50.99900000  *
   916       H         75.61200000  *  135.95400000  * -50.03300000  *
   917       H         75.49500000  *  135.33200000  * -51.69500000  *
   918       N         75.35800000  *  137.42700000  * -51.50600000  *
   919       H         74.62100000  *  138.12700000  * -51.38200000  *
   920       C         76.54800000  *  137.85900000  * -51.89000000  *
   921       N         77.59300000  *  137.04400000  * -51.81500000  *
   922       H         77.44700000  *  136.21200000  * -51.26800000  *
   923       H         78.49900000  *  137.44300000  * -51.92100000  *
   924       N         76.69000000  *  139.09300000  * -52.35600000  *
   925       H         75.86000000  *  139.69200000  * -52.33800000  *
   926       H         77.56200000  *  139.47800000  * -52.67100000  *
   927       C         71.03700000  *  137.42400000  * -48.54200000  *
   928       O         71.18700000  *  136.76800000  * -47.50900000  *
   929       N         70.43700000  *  138.60400000  * -48.51600000  *
   930       H         70.32800000  *  139.16900000  * -49.34700000  *
   931       C         69.93700000  *  139.07600000  * -47.23100000  *
   932       H         69.76500000  *  138.24900000  * -46.54100000  *
   933       C         70.93500000  *  140.04200000  * -46.56200000  *
   934       H         71.90900000  *  139.56600000  * -46.50900000  *
   935       H         71.04400000  *  140.94300000  * -47.17900000  *
   936       C         70.51300000  *  140.42800000  * -45.14700000  *
   937       O         70.17200000  *  139.51500000  * -44.35500000  *
   938       O         70.51000000  *  141.64400000  * -44.82500000  *
   939       C         68.58700000  *  139.73400000  * -47.37800000  *
   940       O         68.35000000  *  140.81000000  * -46.83500000  *
   941       N         67.68700000  *  139.08300000  * -48.11000000  *
   942       H         67.94300000  *  138.20800000  * -48.54500000  *
   943       C         66.35900000  *  139.64900000  * -48.29900000  *
   944       H         66.47700000  *  140.66700000  * -48.65900000  *
   945       C         65.54600000  *  138.81300000  * -49.28800000  *
   946       H         65.58300000  *  137.78400000  * -48.94500000  *
   947       H         64.50600000  *  139.14000000  * -49.25500000  *
   948       C         66.02700000  *  138.85500000  * -50.73600000  *
   949       H         67.06400000  *  138.52800000  * -50.78200000  *
   950       C         65.17300000  *  137.91700000  * -51.58300000  *
   951       H         64.15900000  *  138.30500000  * -51.68800000  *
   952       H         65.63400000  *  137.80700000  * -52.55000000  *
   953       H         65.13400000  *  136.93500000  * -51.11000000  *
   954       C         65.92100000  *  140.27700000  * -51.26400000  *
   955       H         66.42000000  *  140.99600000  * -50.63300000  *
   956       H         66.44200000  *  140.27500000  * -52.20900000  *
   957       H         64.88200000  *  140.56100000  * -51.39700000  *
   958       C         65.59400000  *  139.73400000  * -46.98200000  *
   959       O         65.58600000  *  138.79200000  * -46.16600000  *
   960       N         64.95800000  *  140.85600000  * -46.74400000  *
   961       H         64.96800000  *  141.58800000  * -47.44100000  *
   962       C         64.16800000  *  141.06300000  * -45.54500000  *
   963       H         63.55700000  *  140.17200000  * -45.40500000  *
   964       C         65.04600000  *  141.22800000  * -44.28400000  *
   965       H         64.40900000  *  141.29000000  * -43.40100000  *
   966       H         65.64400000  *  140.32400000  * -44.16700000  *
   967       C         65.98200000  *  142.44300000  * -44.28700000  *
   968       H         66.39400000  *  142.58900000  * -45.28300000  *
   969       H         65.42800000  *  143.33400000  * -43.99400000  *
   970       C         67.13700000  *  142.18500000  * -43.31200000  *
   971       H         66.73800000  *  141.91500000  * -42.33200000  *
   972       H         67.71800000  *  141.34300000  * -43.69700000  *
   973       C         68.04300000  *  143.41000000  * -43.16600000  *
   974       H         68.14100000  *  143.90000000  * -44.14000000  *
   975       H         67.56300000  *  144.12000000  * -42.48200000  *
   976       N         69.38200000  *  143.01000000  * -42.66000000  *
   977       H         69.87100000  *  142.43700000  * -43.36100000  *
   978       H         69.94600000  *  143.82100000  * -42.44100000  *
   979       H         69.29500000  *  142.46400000  * -41.81200000  *
   980       C         63.26600000  *  142.23000000  * -45.83600000  *
   981       O         63.62600000  *  143.07400000  * -46.65700000  *
   982       N         62.11200000  *  142.30300000  * -45.18600000  *
   983       C         61.62600000  *  141.34600000  * -44.17100000  *
   984       H         62.10000000  *  141.53200000  * -43.20900000  *
   985       H         61.74500000  *  140.31100000  * -44.47600000  *
   986       C         60.16400000  *  141.66900000  * -44.09500000  *
   987       H         59.73700000  *  141.34900000  * -43.14300000  *
   988       H         59.63700000  *  141.20600000  * -44.93200000  *
   989       C         60.16000000  *  143.18900000  * -44.24800000  *
   990       H         60.51600000  *  143.64900000  * -43.32100000  *
   991       H         59.20200000  *  143.56500000  * -44.57400000  *
   992       C         61.14500000  *  143.38000000  * -45.40300000  *
   993       H         60.63400000  *  143.20500000  * -46.34500000  *
   994       C         61.77100000  *  144.77100000  * -45.44800000  *
   995       O         61.39200000  *  145.58400000  * -46.27300000  *
   996       N         62.72800000  *  145.09300000  * -44.56000000  *
   997       H         62.97500000  *  144.40800000  * -43.86100000  *
   998       C         63.43800000  *  146.39600000  * -44.54200000  *
   999       H         62.70000000  *  147.19700000  * -44.46500000  *
  1000       C         64.37900000  *  146.48400000  * -43.32700000  *
  1001       H         65.06800000  *  145.64000000  * -43.34600000  *
  1002       H         64.96900000  *  147.39800000  * -43.41400000  *
  1003       C         63.66100000  *  146.53000000  * -41.97200000  *
  1004       H         62.95800000  *  147.36400000  * -41.97500000  *
  1005       H         63.10700000  *  145.60600000  * -41.82200000  *
  1006       C         64.64500000  *  146.69600000  * -40.81200000  *
  1007       O         65.65900000  *  146.01700000  * -40.72000000  *
  1008       N         64.38900000  *  147.58700000  * -39.87900000  *
  1009       H         65.04700000  *  147.68500000  * -39.12100000  *
  1010       H         63.58200000  *  148.18800000  * -39.94300000  *
  1011       C         64.28500000  *  146.68100000  * -45.80100000  *
  1012       O         64.50700000  *  147.83700000  * -46.15300000  *
  1013       N         64.75700000  *  145.63100000  * -46.47700000  *
  1014       H         64.45400000  *  144.71400000  * -46.18300000  *
  1015       C         65.53600000  *  145.69000000  * -47.71600000  *
  1016       H         66.10000000  *  146.62400000  * -47.75100000  *
  1017       C         66.54600000  *  144.51200000  * -47.74300000  *
  1018       H         66.04200000  *  143.58800000  * -47.47200000  *
  1019       H         66.91700000  *  144.38200000  * -48.75700000  *
  1020       C         67.77600000  *  144.69900000  * -46.86400000  *
  1021       O         68.08300000  *  145.78000000  * -46.38900000  *
  1022       N         68.53300000  *  143.65300000  * -46.61100000  *
  1023       H         69.39800000  *  143.79800000  * -46.11700000  *
  1024       H         68.28300000  *  142.70600000  * -46.87900000  *
  1025       C         64.63200000  *  145.70000000  * -48.96700000  *
  1026       O         65.15500000  *  145.60400000  * -50.07600000  *
  1027       N         63.30000000  *  145.80300000  * -48.83400000  *
  1028       H         62.89500000  *  145.87300000  * -47.90900000  *
  1029       C         62.40600000  *  145.84500000  * -49.97900000  *
  1030       H         62.94700000  *  145.74800000  * -50.91900000  *
  1031       C         61.36900000  *  144.72100000  * -49.88900000  *
  1032       H         60.76900000  *  144.86100000  * -48.99200000  *
  1033       H         60.74400000  *  144.79800000  * -50.77200000  *
  1034       C         62.03600000  *  143.32400000  * -49.85900000  *
  1035       H         62.67100000  *  143.24000000  * -48.98800000  *
  1036       C         61.00200000  *  142.26000000  * -49.77100000  *
  1037       H         60.24600000  *  142.42800000  * -50.53400000  *
  1038       H         61.44700000  *  141.27100000  * -49.89000000  *
  1039       H         60.52000000  *  142.31900000  * -48.79800000  *
  1040       C         62.89500000  *  143.12600000  * -51.08400000  *
  1041       H         63.82900000  *  143.66800000  * -50.95600000  *
  1042       H         63.12900000  *  142.06900000  * -51.20900000  *
  1043       H         62.39300000  *  143.49200000  * -51.96600000  *
  1044       C         61.76300000  *  147.21800000  * -49.95200000  *
  1045       O         61.15000000  *  147.60200000  * -48.96600000  *
  1046       N         61.89200000  *  147.98000000  * -51.03100000  *
  1047       H         62.38600000  *  147.60500000  * -51.83500000  *
  1048       C         61.44000000  *  149.36900000  * -51.07500000  *
  1049       H         61.06300000  *  149.67900000  * -50.10300000  *
  1050       C         62.60300000  *  150.27900000  * -51.44500000  *
  1051       H         62.97600000  *  149.99100000  * -52.42900000  *
  1052       H         62.22000000  *  151.29600000  * -51.49600000  *
  1053       C         63.75900000  *  150.23600000  * -50.44600000  *
  1054       H         64.21900000  *  149.24900000  * -50.45000000  *
  1055       C         64.77900000  *  151.25700000  * -50.90700000  *
  1056       H         64.43400000  *  152.25600000  * -50.64800000  *
  1057       H         65.72600000  *  151.04300000  * -50.42300000  *
  1058       H         64.92200000  *  151.21200000  * -51.98200000  *
  1059       C         63.31700000  *  150.58000000  * -49.02500000  *
  1060       H         62.78300000  *  149.73200000  * -48.60700000  *
  1061       H         64.17400000  *  150.78200000  * -48.39100000  *
  1062       H         62.67000000  *  151.45600000  * -49.03000000  *
  1063       C         60.31100000  *  149.54900000  * -52.06500000  *
  1064       O         60.39700000  *  149.08300000  * -53.18800000  *
  1065       N         59.26800000  *  150.25600000  * -51.67700000  *
  1066       H         59.36500000  *  150.76300000  * -50.80000000  *
  1067       C         58.08300000  *  150.44700000  * -52.50800000  *
  1068       H         58.17300000  *  149.92400000  * -53.45700000  *
  1069       C         56.81900000  *  149.90600000  * -51.78600000  *
  1070       H         55.94300000  *  150.08700000  * -52.41500000  *
  1071       C         56.95000000  *  148.40400000  * -51.54300000  *
  1072       H         57.75300000  *  148.18300000  * -50.83300000  *
  1073       H         56.01300000  *  148.00400000  * -51.15200000  *
  1074       H         57.15800000  *  147.91500000  * -52.48900000  *
  1075       C         56.64700000  *  150.60600000  * -50.43300000  *
  1076       H         57.48200000  *  150.38000000  * -49.77500000  *
  1077       H         56.60500000  *  151.68300000  * -50.57600000  *
  1078       C         55.37000000  *  150.22200000  * -49.68600000  *
  1079       H         55.48900000  *  149.24800000  * -49.22200000  *
  1080       H         55.17000000  *  150.96500000  * -48.91000000  *
  1081       H         54.52900000  *  150.16800000  * -50.38500000  *
  1082       C         57.87200000  *  151.93000000  * -52.81700000  *
  1083       O         58.38200000  *  152.79400000  * -52.10000000  *
  1084       N         57.14900000  *  152.22000000  * -53.89700000  *
  1085       H         56.70500000  *  151.48200000  * -54.43300000  *
  1086       C         56.84100000  *  153.60200000  * -54.22700000  *
  1087       H         57.16800000  *  154.27800000  * -53.43100000  *
  1088       C         57.50400000  *  154.05300000  * -55.54100000  *
  1089       H         57.21800000  *  155.07000000  * -55.80500000  *
  1090       H         58.58200000  *  154.04400000  * -55.38800000  *
  1091       C         57.19300000  *  153.14600000  * -56.70100000  *
  1092       O         56.13500000  *  152.53500000  * -56.76400000  *
  1093       N         58.11500000  *  153.07200000  * -57.64100000  *
  1094       H         57.83300000  *  152.61700000  * -58.48600000  *
  1095       H         58.88600000  *  153.71500000  * -57.62100000  *
  1096       C         55.33100000  *  153.75800000  * -54.32100000  *
  1097       O         54.57600000  *  152.79900000  * -54.11400000  *
  1098       N         54.88500000  *  154.97100000  * -54.62100000  *
  1099       H         55.52100000  *  155.73600000  * -54.79200000  *
  1100       C         53.46400000  *  155.24700000  * -54.72300000  *
  1101       H         52.92700000  *  154.82600000  * -53.87200000  *
  1102       C         53.20900000  *  156.78000000  * -54.75500000  *
  1103       H         52.16900000  *  156.98000000  * -55.02600000  *
  1104       C         53.47800000  *  157.39700000  * -53.41000000  *
  1105       H         54.52100000  *  157.25500000  * -53.13000000  *
[...]
 1005  H   0.83044
 1006  C   1.06527   0.79403   0.73703   0.79809
 1007  O   1.87726   1.41024   1.58703   1.82361
 1008  N   1.52657   1.35389   1.39785   1.31960
 1009  H   0.65792
 1010  H   0.66300
 1011  C   1.08346   0.75707   0.78052   0.81401
 1012  O   1.88440   1.66336   1.31236   1.73581
 1013  N   1.55161   1.50545   1.20257   1.30327
 1014  H   0.66559
 1015  C   1.07323   0.94738   1.09556   0.82029
 1016  H   0.80240
 1017  C   1.07043   1.04901   1.08969   1.16466
 1018  H   0.83115
 1019  H   0.79586
 1020  C   1.05868   0.80510   0.76631   0.75667
 1021  O   1.87624   1.77128   1.40133   1.61756
 1022  N   1.53129   1.31416   1.19629   1.58247
 1023  H   0.66734
 1024  H   0.65432
 1025  C   1.08730   0.78528   0.72026   0.85269
 1026  O   1.87909   1.76675   1.61035   1.37985
 1027  N   1.54103   1.12647   1.66398   1.18395
 1028  H   0.65430
 1029  C   1.07007   0.96894   0.98039   0.97392
 1030  H   0.81081
 1031  C   1.06731   1.06433   0.99779   1.17271
 1032  H   0.83762
 1033  H   0.84765
 1034  C   1.04103   1.01215   0.94627   1.06234
 1035  H   0.85606
 1036  C   1.04920   1.12573   1.11840   1.17072
 1037  H   0.84459
 1038  H   0.84874
 1039  H   0.86586
 1040  C   1.05155   1.14137   1.17196   1.09896
 1041  H   0.84485
 1042  H   0.85743
 1043  H   0.84960
 1044  C   1.07626   0.75006   0.84284   0.75556
 1045  O   1.87178   1.53869   1.79707   1.44590
 1046  N   1.54572   1.55371   1.17421   1.24700
 1047  H   0.64561
 1048  C   1.06411   0.98810   0.82684   1.10240
 1049  H   0.81211
 1050  C   1.06434   1.02765   1.10830   1.11833
 1051  H   0.84670
 1052  H   0.84022
 1053  C   1.04783   0.97294   1.07113   0.96404
 1054  H   0.86638
 1055  C   1.05396   1.12606   1.13107   1.16336
 1056  H   0.84443
 1057  H   0.84916
 1058  H   0.85907
 1059  C   1.05413   1.17190   1.17367   1.05565
 1060  H   0.84234
 1061  H   0.85250
 1062  H   0.84481
 1063  C   1.07394   0.79973   0.74404   0.81621
 1064  O   1.86809   1.83148   1.62646   1.34380
 1065  N   1.54169   1.19347   1.46623   1.29776
 1066  H   0.64201
 1067  C   1.07617   0.88936   1.00897   1.04208
 1068  H   0.81043
 1069  C   1.06435   1.01654   0.99304   1.01936
 1070  H   0.84989
 1071  C   1.05464   1.18096   1.03458   1.17677
 1072  H   0.84368
 1073  H   0.84514
 1074  H   0.85301
 1075  C   1.05397   1.06895   1.11985   1.03209
 1076  H   0.84709
 1077  H   0.86060
 1078  C   1.05259   1.08998   1.15778   1.13240
 1079  H   0.84859
 1080  H   0.87711
 1081  H   0.84631
 1082  C   1.08469   0.74208   0.88326   0.74257
 1083  O   1.88597   1.57367   1.57822   1.56218
 1084  N   1.54220   1.50362   1.14569   1.33447
 1085  H   0.64497
 1086  C   1.06302   0.97068   0.88061   1.04274
 1087  H   0.79495
 1088  C   1.07167   1.17791   1.12355   1.02112
 1089  H   0.81366
 1090  H   0.80935
 1091  C   1.06139   0.75922   0.76832   0.82230
 1092  O   1.87985   1.35770   1.57134   1.83687
 1093  N   1.53431   1.29876   1.49595   1.27237
 1094  H   0.67382
 1095  H   0.66525
 1096  C   1.08267   0.88380   0.75687   0.70935
 1097  O   1.88736   1.65622   1.47038   1.59416
 1098  N   1.54040   1.14474   1.19950   1.67060
 1099  H   0.66120
 1100  C   1.08514   0.83815   1.05656   1.07992
 1101  H   0.80423
 1102  C   1.08421   0.99087   0.86855   0.89028
 1103  H   0.84644
 1104  C   1.05390   1.18495   1.17982   1.05595
 1105  H   0.84069
 1106  H   0.82475
 1107  H   0.82916
 1108  O   1.84918   1.59111   1.82264   1.34419
 1109  H   0.64378
 1110  C   1.07379   0.78839   0.75452   0.82458
 1111  O   1.87769   1.28107   1.69034   1.84963
 1112  N   1.53346   1.19464   1.53427   1.21030
 1113  H   0.66536
 1114  C   1.05705   1.15371   1.13330   0.89418
 1115  H   0.83553
 1116  H   0.83834
 1117  H   0.83553
 1118  H   0.83968
 1119  C   1.10505   0.75505   0.73546   0.91350
 1120  O   1.88312   1.71083   1.59674   1.48267
 1121  N   1.54488   1.42781   1.34570   1.20826
 1122  H   0.65358
 1123  C   1.08081   0.93074   1.08479   0.93144
 1124  H   0.80883
 1125  C   1.07312   1.07899   0.95370   0.98249
 1126  H   0.84399
 1127  C   1.05810   1.18714   1.08405   1.12931
 1128  H   0.84358
 1129  H   0.84839
 1130  H   0.85203
 1131  C   1.05416   1.07586   1.13469   1.01867
 1132  H   0.85368
 1133  H   0.85436
 1134  C   1.04918   1.14375   1.15101   1.09048
 1135  H   0.84985
 1136  H   0.85998
 1137  H   0.84947
 1138  C   1.07232   0.84172   0.73639   0.77752
 1139  O   1.87774   1.89045   1.52091   1.39081
 1140  N   1.54504   1.10260   1.52677   1.33592
 1141  H   0.63199
 1142  C   1.06984   0.84637   1.05342   1.03780
 1143  H   0.81761
 1144  C   1.06005   1.09283   1.04619   1.09586
 1145  H   0.83724
 1146  H   0.84632
 1147  C   1.05108   1.08552   1.04447   1.07803
 1148  H   0.84949
 1149  H   0.84485
 1150  C   1.05950   1.08243   1.05518   1.09856
 1151  H   0.84080
 1152  H   0.83204
 1153  C   1.07894   1.02206   0.99754   1.07443
 1154  H   0.81092
 1155  H   0.83383
 1156  N   1.45912   1.23094   1.22859   1.25607
 1157  H   0.69599
 1158  H   0.69954
 1159  H   0.68622
 1160  C   1.07839   0.77968   0.75030   0.82527
 1161  O   1.88097   1.77279   1.69354   1.29116
 1162  N   1.54482   1.32862   1.42509   1.23099
 1163  H   0.64015
 1164  C   1.07028   0.91857   0.95773   1.02938
 1165  H   0.83194
 1166  C   1.06278   1.10006   1.01944   1.13279
 1167  H   0.83513
 1168  H   0.84515
 1169  C   1.05374   1.07065   0.96083   0.96358
 1170  H   0.85942
 1171  C   1.06224   1.16620   1.13947   1.09209
 1172  H   0.85193
 1173  H   0.84898
 1174  H   0.85255
 1175  C   1.05740   1.18282   1.13711   1.08867
 1176  H   0.85370
 1177  H   0.84797
 1178  H   0.85433
 1179  C   1.08492   0.79127   0.79891   0.75857
 1180  O   1.88084   1.63472   1.59992   1.53776
 1181  N   1.54389   1.37148   1.43572   1.15949
 1182  H   0.64609
 1183  C   1.06745   0.91306   0.92755   1.04864
 1184  H   0.83242
 1185  C   1.05957   1.16324   1.08842   1.15154
 1186  H   0.82171
 1187  H   0.83157
 1188  H   0.82815
 1189  C   1.08850   0.78872   0.78458   0.74599
 1190  O   1.87356   1.84665   1.36265   1.58709
 1191  N   1.54625   1.16833   1.33170   1.48717
 1192  H   0.67279
 1193  C   1.07482   0.88125   1.08038   0.93155
 1194  H   0.81324
 1195  C   1.07843   1.14222   1.18503   1.00383
 1196  H   0.80680
 1197  H   0.82996
 1198  C   1.07311   0.73810   0.73077   0.69471
 1199  O   1.88648   1.73397   1.48889   1.61751
 1200  O   1.87301   1.75038   1.45992   1.79597
 1201  C   1.09144   0.81943   0.79696   0.74337
 1202  O   1.88731   1.27780   1.81378   1.56912
 1203  N   1.56703   1.29252   1.16886   1.54124
 1204  H   0.67955
 1205  C   1.07972   1.01993   0.91842   0.95334
 1206  H   0.83928
 1207  C   1.05574   1.07812   1.20283   0.96221
 1208  H   0.81361
 1209  H   0.81935
 1210  C   1.07461   0.97374   0.97771   0.97041
 1211  C   1.09015   1.04124   1.04138   1.01378
 1212  H   0.83943
 1213  C   1.08876   0.98506   1.06203   1.01002
 1214  H   0.84193
 1215  C   1.08752   1.05974   0.99151   1.03185
 1216  H   0.84755
 1217  C   1.08931   1.03695   1.03626   0.98960
 1218  H   0.83200
 1219  C   1.08704   0.98643   1.06377   1.02427
 1220  H   0.83874
 1221  C   1.08979   0.80325   0.77352   0.76306
 1222  O   1.88540   1.44333   1.55830   1.71356
 1223  N   1.53945   1.41487   1.43800   1.13679
 1224  H   0.68603
 1225  C   1.06834   0.98938   1.06844   0.98056
 1226  H   0.81671
 1227  H   0.80555
 1228  C   1.07960   0.82830   0.77915   0.70411
 1229  O   1.87716   1.84025   1.32282   1.60852
 1230  N   1.55912   1.30179   1.23368   1.45015
 1231  H   0.67495
 1232  C   1.07783   0.89835   1.03318   0.96945
 1233  H   0.83190
 1234  C   1.06797   1.11409   0.95053   1.17408
 1235  H   0.84090
 1236  H   0.82801
 1237  C   1.05188   1.03154   0.96040   1.01239
 1238  H   0.86307
 1239  C   1.05589   1.16904   1.06768   1.16128
 1240  H   0.85774
 1241  H   0.84294
 1242  H   0.85828
 1243  C   1.05566   1.17171   1.18954   1.04528
 1244  H   0.84108
 1245  H   0.84059
 1246  H   0.85748
 1247  C   1.09487   0.85764   0.76651   0.72770
 1248  O   1.88132   1.32391   1.78567   1.59288
 1249  N   1.58212   1.28173   1.23276   1.52140
 1250  H   0.66116
 1251  C   1.06875   0.96494   0.99762   0.95377
 1252  H   0.83609
 1253  C   1.05861   1.13939   1.09721   1.17441
 1254  H   0.84387
 1255  H   0.80952
 1256  H   0.81098
 1257  C   1.07562   0.83402   0.75259   0.78166
 1258  O   1.88398   1.49882   1.59892   1.64916
 1259  N   1.54299   1.31159   1.51235   1.14401
 1260  H   0.67646
 1261  C   1.06252   0.92390   1.14577   1.10582
 1262  H   0.82616
 1263  H   0.82958
 1264  H   0.83887
 1265  H   0.84121
 1266  C   1.10476   0.72495   0.79431   0.87705
 1267  O   1.88387   1.53282   1.36149   1.88305
 1268  N   1.54284   1.48755   1.35125   1.14849
 1269  H   0.67743
 1270  C   1.07277   1.11684   0.96746   0.82286
 1271  H   0.80252
 1272  C   1.05756   1.09015   1.02775   1.15061
 1273  H   0.83919
 1274  H   0.82068
 1275  C   1.06447   0.97769   0.95024   0.96820
 1276  C   1.08296   1.02005   0.99430   1.05944
 1277  H   0.83865
 1278  C   1.08254   1.04651   1.02672   0.99704
 1279  H   0.84375
 1280  C   1.08135   1.00635   1.05590   1.02611
 1281  H   0.84897
 1282  C   1.08074   1.02440   1.00359   1.05460
 1283  H   0.85477
 1284  C   1.08269   1.06026   1.02724   0.99716
 1285  H   0.84089
 1286  C   1.08001   0.76681   0.78610   0.79914
 1287  O   1.88373   1.53958   1.68087   1.53422
 1288  N   1.53629   1.17517   1.34745   1.43085
 1289  H   0.67341
 1290  C   1.05780   1.14255   0.97557   0.99861
 1291  H   0.81539
 1292  H   0.78910
 1293  C   1.07407   0.78838   0.75724   0.80174
 1294  O   1.88067   1.54021   1.38210   1.84130
 1295  N   1.53624   1.41083   1.37800   1.17761
 1296  H   0.65085
 1297  C   1.07416   1.00267   1.19836   0.87809
 1298  H   0.81281
 1299  H   0.79449
 1300  C   1.08211   0.77425   0.74495   0.80734
 1301  O   1.88287   1.52175   1.53256   1.73155
 1302  N   1.56478   1.44486   1.16605   1.26728
 1303  C   1.07078   1.06952   0.87073   1.05661
 1304  H   0.83608
 1305  H   0.84069
 1306  C   1.05710   1.04747   1.13571   1.05891
 1307  H   0.84547
 1308  H   0.80780
 1309  C   1.06098   1.08147   0.98350   1.17230
 1310  H   0.83533
 1311  H   0.81927
 1312  C   1.07352   1.05285   1.00107   0.86832
 1313  H   0.81306
 1314  C   1.08823   0.76377   0.76835   0.82879
 1315  O   1.88394   1.42695   1.43539   1.88341
 1316  N   1.54310   1.40337   1.48377   1.11754
 1317  H   0.64353
 1318  C   1.08223   1.04971   1.11424   0.89100
 1319  H   0.80069
 1320  H   0.78723
 1321  C   1.08831   0.82555   0.73025   0.77836
 1322  O   1.88490   1.70332   1.72963   1.32953
 1323  N   1.55116   1.23252   1.41118   1.34466
 1324  H   0.68849
 1325  C   1.07571   0.85974   1.06401   0.97857
 1326  H   0.82216
 1327  C   1.05961   1.16906   1.07546   0.97628
 1328  H   0.83482
 1329  H   0.83875
 1330  C   1.05817   1.13842   1.07481   1.02403
 1331  H   0.82461
 1332  H   0.87159
 1333  C   1.06376   1.08746   1.09999   0.78141
 1334  H   0.85054
 1335  H   0.81937
 1336  N   1.53282   1.62697   1.28988   1.09341
 1337  H   0.64881
 1338  C   0.97601   0.83629   0.80288   0.79450
 1339  N   1.50147   1.56331   1.25852   1.24812
 1340  H   0.67470
 1341  H   0.62634
 1342  N   1.50406   1.55703   1.35355   1.14113
 1343  H   0.64454
 1344  H   0.63717
 1345  C   1.08252   0.75749   0.77392   0.84366
 1346  O   1.88759   1.48118   1.64736   1.56813
 1347  N   1.54314   1.54487   1.19764   1.24108
 1348  H   0.67353
 1349  C   1.09009   1.00028   1.00981   0.91799
 1350  H   0.79896
 1351  C   1.08597   0.92832   0.92557   0.87557
 1352  H   0.84907
 1353  C   1.05835   1.09917   1.12862   1.20315
 1354  H   0.82601
 1355  H   0.83392
 1356  H   0.83124
 1357  O   1.84245   1.58494   1.64230   1.57225
 1358  H   0.62407
 1359  C   1.07899   0.80863   0.78938   0.75855
 1360  O   1.88642   1.54225   1.79532   1.37608
 1361  N   1.55288   1.32715   1.29604   1.37733
 1362  H   0.65178
 1363  C   1.07397   0.98900   0.92738   0.99344
 1364  H   0.81754
 1365  C   1.05775   1.09579   1.06827   1.08613
 1366  H   0.84130
 1367  H   0.82944
 1368  C   1.06127   0.97116   0.97508   1.05843
 1369  C   1.08301   0.97328   1.08032   0.99473
 1370  H   0.84432
 1371  C   1.08327   1.08223   0.99526   1.00964
 1372  H   0.80558
 1373  C   1.06598   0.82567   0.89571   0.91489
 1374  O   1.84135   1.46982   1.54112   1.69628
 1375  H   0.63962
 1376  C   1.07379   0.99023   1.09203   1.06968
 1377  H   0.84671
 1378  C   1.08141   1.06403   0.99863   0.99725
 1379  H   0.85876
 1380  C   1.08197   0.77628   0.73392   0.82103
 1381  O   1.88472   1.39068   1.55631   1.82948
 1382  N   1.55037   1.20075   1.60153   1.14807
 1383  H   0.66062
 1384  C   1.08718   1.11686   1.03489   0.83750
 1385  H   0.82131
 1386  C   1.08255   0.83240   0.89075   1.00025
 1387  H   0.86823
 1388  C   1.05717   1.09853   1.14098   1.18966
 1389  H   0.83108
 1390  H   0.84541
 1391  H   0.84164
 1392  O   1.84703   1.32381   1.76609   1.66684
 1393  H   0.61658
 1394  C   1.08211   0.82816   0.76383   0.79203
 1395  O   1.88731   1.29190   1.70652   1.67739
 1396  N   1.54293   1.22797   1.27090   1.47593
 1397  H   0.64940
 1398  C   1.07061   0.98376   1.04052   1.07614
 1399  H   0.84409
 1400  H   0.80861
 1401  C   1.07037   0.85088   0.72010   0.75162
 1402  O   1.88495   1.70094   1.45764   1.55971
 1403  N   1.55353   1.14734   1.51358   1.33247
 1404  H   0.67987
 1405  C   1.07059   0.82926   0.98722   1.12852
 1406  H   0.81462
 1407  C   1.05338   1.16415   0.99023   1.05282
 1408  H   0.83869
 1409  H   0.83675
 1410  C   1.05979   1.20541   1.01196   1.13825
 1411  H   0.84295
 1412  H   0.82594
 1413  C   1.06691   0.72346   0.72075   0.72816
 1414  O   1.88777   1.47287   1.82276   1.63572
 1415  O   1.88499   1.51780   1.58653   1.81424
 1416  C   1.08682   0.77118   0.86255   0.75469
 1417  O   1.88736   1.64832   1.65282   1.40906
 1418  N   1.54588   1.31035   1.19197   1.47869
 1419  H   0.65333
 1420  C   1.07213   1.06274   0.88118   1.00745
 1421  H   0.84357
 1422  C   1.05449   1.01868   1.03233   0.97098
 1423  H   0.83632
 1424  C   1.05591   1.17744   1.04868   1.19328
 1425  H   0.84536
 1426  H   0.83576
 1427  H   0.83803
 1428  C   1.05455   1.18133   1.16760   1.06136
 1429  H   0.84079
 1430  H   0.83975
 1431  H   0.85193
 1432  C   1.07575   0.77106   0.73156   0.84225
 1433  O   1.88366   1.36389   1.63738   1.76955
 1434  N   1.53827   1.27318   1.47279   1.21093
 1435  H   0.66888
 1436  C   1.07705   1.00720   1.05462   0.86816
 1437  H   0.82301
 1438  C   1.06066   1.02661   1.01608   0.97670
 1439  H   0.84043
 1440  C   1.05418   1.18419   1.09817   1.12131
 1441  H   0.84083
 1442  H   0.84080
 1443  H   0.85067
 1444  C   1.05739   1.18970   1.16677   1.05267
 1445  H   0.84628
 1446  H   0.83554
 1447  H   0.83872
 1448  C   1.08152   0.80659   0.78642   0.75127
 1449  O   1.88318   1.81145   1.47309   1.46013
 1450  N   1.53605   1.23698   1.43136   1.31667
 1451  H   0.66481
 1452  C   1.07957   0.90437   0.96825   1.14831
 1453  H   0.80502
 1454  C   1.07973   0.93539   0.82459   0.98309
 1455  H   0.86683
 1456  C   1.05746   1.09508   1.13580   1.19623
 1457  H   0.82468
 1458  H   0.82204
 1459  H   0.84137
 1460  O   1.84759   1.47761   1.49390   1.78185
 1461  H   0.64885
 1462  C   1.07071   0.75363   0.82647   0.79811
 1463  O   1.88055   1.50728   1.88263   1.36455
 1464  N   1.53715   1.55017   1.12171   1.29442
 1465  H   0.65701
 1466  C   1.05410   1.16780   0.87313   1.13587
 1467  H   0.83026
 1468  H   0.83666
 1469  H   0.85121
 1470  H   0.82725
 1471  C   1.10850   0.72193   0.77563   0.90300
 1472  O   1.87917   1.50019   1.39716   1.89103
 1473  N   1.54809   1.50775   1.35868   1.13691
 1474  H   0.67067
 1475  C   1.07820   1.08324   1.04077   0.80197
 1476  H   0.80358
 1477  C   1.05902   1.13420   0.99963   1.10168
 1478  H   0.81861
 1479  H   0.82210
 1480  C   1.06595   0.97598   0.99298   1.00550
 1481  C   1.08233   0.99067   1.02469   1.00448
 1482  H   0.83751
 1483  C   1.07636   1.10515   1.04979   1.06621
 1484  H   0.82021
 1485  C   1.07255   0.88640   0.88194   0.87962
 1486  O   1.83870   1.35504   1.61289   1.73269
 1487  H   0.61905
 1488  C   1.07845   0.98874   1.10010   1.09723
 1489  H   0.82140
 1490  C   1.08815   1.07853   0.97889   0.96902
 1491  H   0.83531
 1492  C   1.08083   0.79999   0.76889   0.79201
 1493  O   1.88630   1.81383   1.69953   1.28030
 1494  N   1.53470   1.25582   1.50890   1.18460
 1495  H   0.67094
 1496  C   1.06143   0.92032   1.08958   1.16684
 1497  H   0.83440
 1498  H   0.82968
 1499  H   0.83836
 1500  H   0.82483
 1501  C   1.10804   0.78633   0.88374   0.71614
 1502  O   1.88011   1.43049   1.87066   1.50906
 1503  N   1.55069   1.37513   1.18533   1.44528
 1504  H   0.64442
 1505  C   1.07866   0.96583   0.86326   1.12907
 1506  H   0.81498
 1507  C   1.05975   0.97983   0.99673   1.07647
 1508  H   0.84629
 1509  C   1.05206   1.15828   1.06264   1.17604
 1510  H   0.84456
 1511  H   0.84463
 1512  H   0.84159
 1513  C   1.04784   0.99999   1.12971   1.08490
 1514  H   0.86689
 1515  H   0.85350
 1516  C   1.04904   1.11603   1.12949   1.14952
 1517  H   0.85884
 1518  H   0.85757
 1519  H   0.84097
 1520  C   1.07238   0.85952   0.73800   0.75027
 1521  O   1.87627   1.57598   1.55599   1.67378
 1522  N   1.54217   1.18502   1.41738   1.37460
 1523  H   0.66204
 1524  C   1.07135   0.87890   1.16328   1.10827
 1525  H   0.84314
 1526  H   0.83222
 1527  H   0.83415
 1528  H   0.82781
 1529  C   1.10754   0.84811   0.73325   0.82109
 1530  O   1.88536   1.81617   1.62612   1.36647
 1531  N   1.53783   1.25356   1.40316   1.30537
 1532  H   0.64795
 1533  C   1.05921   0.89168   1.04108   1.02462
 1534  H   0.81852
 1535  C   1.06070   1.03237   1.11482   1.11480
 1536  H   0.82495
 1537  H   0.84692
 1538  C   1.04445   0.99025   0.96296   1.05945
 1539  H   0.88128
 1540  C   1.05457   1.16280   1.06844   1.18113
 1541  H   0.83878
 1542  H   0.84807
 1543  H   0.85324
 1544  C   1.05247   1.12280   1.17182   1.10789
 1545  H   0.85812
 1546  H   0.84757
 1547  H   0.84074
 1548  C   1.07863   0.72928   0.86460   0.77482
 1549  O   1.88185   1.57584   1.45145   1.73545
 1550  N   1.54015   1.57295   1.21282   1.19374
 1551  H   0.66037
 1552  C   1.07181   1.01928   0.93511   0.96157
 1553  H   0.81164
 1554  C   1.05666   1.17074   1.07927   0.99176
 1555  H   0.82429
 1556  H   0.82659
 1557  C   1.05680   1.13001   1.08790   1.03619
 1558  H   0.85301
 1559  H   0.82409
 1560  C   1.06364   1.15826   0.94492   0.90203
 1561  H   0.81639
 1562  H   0.83552
 1563  N   1.52416   1.16150   1.42470   1.39820
 1564  H   0.63980
 1565  C   0.99143   0.79129   0.81235   0.81837
 1566  N   1.51717   1.11629   1.46806   1.48668
 1567  H   0.65570
 1568  H   0.63926
 1569  N   1.50868   1.25121   1.39996   1.41137
 1570  H   0.64204
 1571  H   0.64045
 1572  C   1.08183   0.87195   0.77083   0.74415
 1573  O   1.88728   1.60929   1.60036   1.52977
 1574  N   1.53969   1.17452   1.27128   1.51501
 1575  H   0.65675
 1576  C   1.07433   0.85669   1.08652   1.03845
 1577  H   0.82239
 1578  C   1.06147   1.16325   1.09954   0.98536
 1579  H   0.84161
 1580  H   0.84015
 1581  C   1.04756   1.08158   0.95980   0.94830
 1582  H   0.86967
 1583  C   1.05603   1.17209   1.16325   1.07663
 1584  H   0.85235
 1585  H   0.86184
 1586  H   0.84615
 1587  C   1.05672   1.15813   1.09200   1.15824
 1588  H   0.85164
 1589  H   0.86087
 1590  H   0.84443
 1591  C   1.08268   0.71501   0.76169   0.70258
 1592  O   1.88397   1.46779   1.86997   1.62378
 1593  O   1.88778   1.54625   1.59288   1.80206

 **********************
 *                    *
 * JOB ENDED NORMALLY *
 *                    *
 **********************



 TOTAL JOB TIME:          2992.19 SECONDS

 == MOPAC DONE ==
