 *******************************************************************************
 **                                                                           **
 **                              MOPAC v23.2.2                                **
 **                                                                           **
 *******************************************************************************
 **          Digital Object Identifier (DOI): 10.5281/zenodo.6511958          **
 **    Visit the DOI location for information on how to cite this program.    **
 *******************************************************************************

                              PM7 CALCULATION RESULTS

 *******************************************************************************
 *  CALCULATION DONE: (MAX THREADS = 24)             Thu Jan 22 19:02:14 2026  *
 *  PM7        - The PM7 Hamiltonian to be used
 *
 *
 *
 *                 CHARGE ON SYSTEM = +2
 *
 *
 *
 *  EPS=78.4   - USE ANDREAS KLAMT'S COSMO IMPLICIT SOLVATION MODEL
 *  XYZ        - CARTESIAN COORDINATE SYSTEM TO BE USED
 *  1SCF       - DO 1 SCF AND THEN STOP 
 *  T=         - A TIME OF 172800.0 SECONDS REQUESTED
 *  DUMP=N     - RESTART FILE WRITTEN EVERY 7200.0 SECONDS REQUESTED
 *******************************************************************************
PM7 1SCF XYZ CHARGE=2 EPS=78.4


   ATOM   CHEMICAL          X               Y               Z
  NUMBER   SYMBOL      (ANGSTROMS)     (ANGSTROMS)     (ANGSTROMS)

     1       H         71.69100000  *  165.23700000  * -45.36000000  *
     2       C         70.72700000  *  165.64400000  * -45.02500000  *
     3       O         70.67100000  *  166.69300000  * -44.40000000  *
     4       N         69.64800000  *  164.94600000  * -45.35400000  *
     5       H         69.74300000  *  164.08600000  * -45.86500000  *
     6       C         68.31800000  *  165.37700000  * -44.95100000  *
     7       H         68.30400000  *  166.44500000  * -44.75000000  *
     8       C         67.27900000  *  165.08100000  * -46.05800000  *
     9       H         67.27200000  *  164.02200000  * -46.29800000  *
    10       C         65.89200000  *  165.46600000  * -45.59200000  *
    11       H         65.46400000  *  166.22900000  * -46.24500000  *
    12       H         65.23700000  *  164.60600000  * -45.62700000  *
    13       H         65.87600000  *  165.89500000  * -44.58400000  *
    14       C         67.63700000  *  165.85600000  * -47.31700000  *
    15       H         68.59400000  *  165.52900000  * -47.70800000  *
    16       H         66.87900000  *  165.66900000  * -48.07700000  *
    17       H         67.68800000  *  166.92100000  * -47.10100000  *
    18       C         67.91500000  *  164.66400000  * -43.65700000  *
    19       O         67.55300000  *  165.30600000  * -42.67600000  *
    20       N         67.98400000  *  163.33800000  * -43.65800000  *
    21       H         68.28400000  *  162.85200000  * -44.48600000  *
    22       C         67.62300000  *  162.54400000  * -42.48700000  *
    23       H         67.90600000  *  163.07600000  * -41.58100000  *
    24       C         66.12800000  *  162.23500000  * -42.45900000  *
    25       H         65.92600000  *  161.47400000  * -43.20900000  *
    26       H         65.88500000  *  161.80700000  * -41.48800000  *
    27       C         65.21300000  *  163.39800000  * -42.74000000  *
    28       H         65.33100000  *  164.15700000  * -41.96400000  *
    29       H         65.45900000  *  163.81400000  * -43.69700000  *
    30       C         63.76600000  *  162.97200000  * -42.82400000  *
    31       O         63.44700000  *  162.11400000  * -43.67900000  *
    32       O         62.94800000  *  163.49400000  * -42.03400000  *
    33       C         68.34700000  *  161.22200000  * -42.57700000  *
    34       O         68.73000000  *  160.78800000  * -43.66100000  *
    35       N         68.52400000  *  160.57500000  * -41.43500000  *
    36       H         68.03000000  *  160.89100000  * -40.60600000  *
    37       C         69.17300000  *  159.28200000  * -41.42100000  *
    38       H         69.95100000  *  159.22100000  * -42.17800000  *
    39       C         69.75600000  *  159.01000000  * -40.03200000  *
    40       H         70.21900000  *  159.94300000  * -39.71800000  *
    41       H         68.96300000  *  158.79100000  * -39.31600000  *
    42       C         70.79800000  *  157.89600000  * -39.98300000  *
    43       H         70.31100000  *  156.94100000  * -40.17400000  *
    44       H         71.53800000  *  158.07300000  * -40.76900000  *
    45       C         71.50100000  *  157.83200000  * -38.61800000  *
    46       H         70.74900000  *  157.59000000  * -37.86000000  *
    47       H         72.23100000  *  157.01800000  * -38.63800000  *
    48       C         72.18600000  *  159.16200000  * -38.26900000  *
    49       H         72.83200000  *  159.42500000  * -39.10900000  *
    50       H         71.41200000  *  159.93100000  * -38.15600000  *
    51       N         73.00000000  *  159.10500000  * -37.02500000  *
    52       H         73.70000000  *  158.37000000  * -37.07400000  *
    53       H         73.43800000  *  159.98800000  * -36.79300000  *
    54       H         72.39100000  *  158.85400000  * -36.25100000  *
    55       C         68.06200000  *  158.28700000  * -41.74800000  *
    56       O         67.16300000  *  158.08100000  * -40.94600000  *
    57       N         68.04600000  *  157.72300000  * -42.96100000  *
    58       H         68.85100000  *  157.87000000  * -43.55000000  *
    59       C         67.03100000  *  156.73800000  * -43.40000000  *
    60       H         66.05600000  *  157.22800000  * -43.40800000  *
    61       C         67.32000000  *  156.21900000  * -44.83000000  *
    62       H         68.39600000  *  156.10200000  * -44.94800000  *
    63       C         66.66200000  *  154.86100000  * -45.12400000  *
    64       H         65.58900000  *  154.91800000  * -44.93800000  *
    65       H         66.82800000  *  154.58600000  * -46.15800000  *
    66       H         67.09900000  *  154.07000000  * -44.51400000  *
    67       C         66.81800000  *  157.25600000  * -45.84700000  *
    68       H         65.72700000  *  157.25400000  * -45.86800000  *
    69       H         67.13900000  *  158.23200000  * -45.49800000  *
    70       C         67.34800000  *  157.05500000  * -47.27500000  *
    71       H         66.93700000  *  156.15000000  * -47.71500000  *
    72       H         67.05300000  *  157.89800000  * -47.89500000  *
    73       H         68.43300000  *  156.98900000  * -47.26700000  *
    74       C         66.92100000  *  155.58300000  * -42.40600000  *
    75       O         65.82100000  *  155.22400000  * -41.98000000  *
    76       N         68.06300000  *  154.99500000  * -42.05400000  *
    77       H         68.94000000  *  155.34700000  * -42.42300000  *
    78       C         68.09900000  *  153.82100000  * -41.20100000  *
    79       H         67.61100000  *  154.05500000  * -40.25400000  *
    80       H         67.55100000  *  153.01100000  * -41.68400000  *
    81       C         69.50600000  *  153.32900000  * -40.90700000  *
    82       O         70.50900000  *  153.79500000  * -41.45500000  *
    83       N         69.54600000  *  152.35100000  * -40.01600000  *
    84       H         68.66600000  *  152.00400000  * -39.66000000  *
    85       C         70.75800000  *  151.78500000  * -39.44800000  *
    86       H         71.59700000  *  152.45300000  * -39.64300000  *
    87       C         70.56700000  *  151.68200000  * -37.92500000  *
    88       H         69.71100000  *  151.04300000  * -37.70600000  *
    89       H         71.46200000  *  151.24500000  * -37.50000000  *
    90       C         70.36700000  *  153.06400000  * -37.27500000  *
    91       H         71.21900000  *  153.69700000  * -37.53700000  *
    92       H         69.46800000  *  153.53600000  * -37.68000000  *
    93       C         70.22800000  *  152.98000000  * -35.74700000  *
    94       O         69.34700000  *  152.24300000  * -35.24700000  *
    95       O         70.96900000  *  153.69300000  * -35.03200000  *
    96       C         71.03300000  *  150.44700000  * -40.15000000  *
    97       O         70.35800000  *  149.44500000  * -39.90300000  *
    98       N         71.92200000  *  150.48200000  * -41.14800000  *
    99       H         72.49900000  *  151.30500000  * -41.26100000  *
   100       C         71.99000000  *  149.47600000  * -42.21100000  *
   101       H         70.97800000  *  149.16300000  * -42.47200000  *
   102       H         72.42400000  *  149.94800000  * -43.09200000  *
   103       C         72.80700000  *  148.22000000  * -41.89600000  *
   104       O         73.28600000  *  147.99900000  * -40.78700000  *
   105       N         72.99400000  *  147.39400000  * -42.92500000  *
   106       H         72.52400000  *  147.60700000  * -43.79600000  *
   107       C         73.79600000  *  146.15200000  * -42.92700000  *
   108       H         73.56900000  *  145.57600000  * -42.03000000  *
   109       C         73.41800000  *  145.30700000  * -44.15500000  *
   110       H         74.18200000  *  144.55400000  * -44.34600000  *
   111       C         72.08500000  *  144.60500000  * -43.94100000  *
   112       H         71.29500000  *  145.34100000  * -43.78000000  *
   113       H         71.85400000  *  144.00400000  * -44.82000000  *
   114       H         72.17300000  *  143.94400000  * -43.07900000  *
   115       O         73.29100000  *  146.15200000  * -45.27500000  *
   116       H         72.91600000  *  145.61900000  * -46.01600000  *
   117       C         75.31200000  *  146.36100000  * -42.95500000  *
   118       O         76.03200000  *  145.52200000  * -42.42000000  *
   119       N         75.78800000  *  147.46700000  * -43.54300000  *
   120       H         75.10600000  *  148.05500000  * -43.99200000  *
   121       C         77.21600000  *  147.75700000  * -43.78900000  *
   122       H         77.83400000  *  147.08400000  * -43.19200000  *
   123       C         77.53700000  *  147.50000000  * -45.27500000  *
   124       H         76.90900000  *  148.13700000  * -45.89800000  *
   125       H         78.57400000  *  147.77700000  * -45.46700000  *
   126       C         77.38300000  *  146.06000000  * -45.70500000  *
   127       C         78.39000000  *  145.14000000  * -45.36800000  *
   128       H         79.27500000  *  145.47200000  * -44.83800000  *
   129       C         78.23900000  *  143.78500000  * -45.69500000  *
   130       H         79.01400000  *  143.09000000  * -45.41700000  *
   131       C         77.07100000  *  143.34200000  * -46.35500000  *
   132       O         76.89000000  *  142.02200000  * -46.60500000  *
   133       H         77.51900000  *  141.49800000  * -46.07500000  *
   134       C         76.07900000  *  144.27100000  * -46.72900000  *
   135       H         75.18300000  *  143.93300000  * -47.22900000  *
   136       C         76.24200000  *  145.63200000  * -46.41200000  *
   137       H         75.47300000  *  146.34100000  * -46.68400000  *
   138       C         77.64800000  *  149.18700000  * -43.41000000  *
   139       O         78.77100000  *  149.58800000  * -43.71100000  *
   140       N         76.77500000  *  149.97000000  * -42.77300000  *
   141       H         75.88500000  *  149.58800000  * -42.49000000  *
   142       C         77.00800000  *  151.38300000  * -42.46500000  *
   143       H         77.57000000  *  151.46700000  * -41.53700000  *
   144       H         77.60500000  *  151.82600000  * -43.25200000  *
   145       C         75.70200000  *  152.16400000  * -42.31900000  *
   146       O         74.64600000  *  151.56600000  * -42.09200000  *
   147       N         75.75500000  *  153.49500000  * -42.44900000  *
   148       H         76.58800000  *  153.89400000  * -42.85900000  *
   149       C         74.59200000  *  154.32600000  * -42.21200000  *
   150       H         73.82600000  *  153.78000000  * -41.65800000  *
   151       C         74.95900000  *  155.54800000  * -41.37000000  *
   152       H         75.70700000  *  156.13900000  * -41.89300000  *
   153       C         73.73100000  *  156.40900000  * -41.13300000  *
   154       H         72.94300000  *  155.80300000  * -40.68200000  *
   155       H         73.98600000  *  157.21200000  * -40.45000000  *
   156       H         73.36800000  *  156.84900000  * -42.06500000  *
   157       C         75.54500000  *  155.09600000  * -40.05300000  *
   158       H         76.46000000  *  154.52800000  * -40.19800000  *
   159       H         75.77700000  *  155.95300000  * -39.42300000  *
   160       H         74.80500000  *  154.48400000  * -39.53200000  *
   161       C         74.01900000  *  154.79200000  * -43.53700000  *
   162       O         74.76100000  *  155.18400000  * -44.43700000  *
   163       N         72.69700000  *  154.65500000  * -43.67200000  *
   164       H         72.16900000  *  154.32400000  * -42.87100000  *
   165       C         71.91500000  *  155.09400000  * -44.83300000  *
   166       H         72.57400000  *  155.15300000  * -45.69600000  *
   167       C         70.77300000  *  154.10600000  * -45.16700000  *
   168       H         69.93700000  *  154.27600000  * -44.48800000  *
   169       C         70.28800000  *  154.34200000  * -46.60200000  *
   170       H         71.08600000  *  154.12200000  * -47.31100000  *
   171       H         69.43600000  *  153.69300000  * -46.81400000  *
   172       H         69.97800000  *  155.37700000  * -46.73200000  *
   173       C         71.17500000  *  152.63200000  * -45.02500000  *
   174       H         72.08000000  *  152.43400000  * -45.59300000  *
   175       H         71.34500000  *  152.39100000  * -43.97500000  *
   176       H         70.36900000  *  151.99400000  * -45.39100000  *
   177       C         71.34200000  *  156.48200000  * -44.54600000  *
   178       O         70.60200000  *  156.63200000  * -43.57100000  *
   179       N         71.62500000  *  157.49000000  * -45.37400000  *
   180       H         72.23900000  *  157.32200000  * -46.16900000  *
   181       C         71.01800000  *  158.79600000  * -45.21900000  *
   182       H         70.37900000  *  158.84300000  * -44.33800000  *
   183       C         72.10000000  *  159.86100000  * -45.06900000  *
   184       H         72.79900000  *  159.78100000  * -45.90500000  *
   185       H         71.63400000  *  160.84400000  * -45.14300000  *
   186       C         72.87100000  *  159.84300000  * -43.76800000  *
   187       C         72.34700000  *  160.43100000  * -42.61900000  *
   188       H         71.37700000  *  160.90600000  * -42.66800000  *
   189       C         73.06400000  *  160.45200000  * -41.42500000  *
   190       H         72.63300000  *  160.94600000  * -40.56800000  *
   191       C         74.33000000  *  159.87400000  * -41.37100000  *
   192       O         75.04700000  *  159.90100000  * -40.18700000  *
   193       H         74.69700000  *  160.54100000  * -39.56800000  *
   194       C         74.87500000  *  159.27800000  * -42.50300000  *
   195       H         75.78500000  *  158.71900000  * -42.41900000  *
   196       C         74.14000000  *  159.26700000  * -43.69600000  *
   197       H         74.51800000  *  158.73300000  * -44.56500000  *
   198       C         70.16700000  *  159.17400000  * -46.42900000  *
   199       O         70.41800000  *  158.72400000  * -47.55600000  *
   200       N         69.03000000  *  159.83500000  * -46.21300000  *
   201       H         68.84400000  *  160.14300000  * -45.26500000  *
   202       C         68.29400000  *  160.51100000  * -47.28200000  *
   203       H         68.28700000  *  159.90900000  * -48.19300000  *
   204       C         66.84900000  *  160.83400000  * -46.85100000  *
   205       H         66.33300000  *  159.91400000  * -46.59200000  *
   206       H         66.86400000  *  161.47400000  * -45.96700000  *
   207       C         66.03900000  *  161.51900000  * -47.96400000  *
   208       H         66.50900000  *  162.46500000  * -48.23700000  *
   209       H         66.01900000  *  160.87000000  * -48.84100000  *
   210       C         64.60100000  *  161.79000000  * -47.49300000  *
   211       H         64.14800000  *  160.85400000  * -47.15900000  *
   212       H         64.62900000  *  162.48400000  * -46.65200000  *
   213       C         63.75800000  *  162.38400000  * -48.62900000  *
   214       H         64.27400000  *  163.26400000  * -49.02600000  *
   215       H         63.68800000  *  161.64100000  * -49.43200000  *
   216       N         62.39600000  *  162.76400000  * -48.16600000  *
   217       H         62.43700000  *  163.47200000  * -47.44500000  *
   218       H         61.84400000  *  163.14500000  * -48.92300000  *
   219       H         61.89500000  *  161.97200000  * -47.78900000  *
   220       C         69.10000000  *  161.76700000  * -47.51000000  *
   221       O         69.32800000  *  162.50100000  * -46.55300000  *
   222       N         69.55500000  *  162.00600000  * -48.72500000  *
   223       H         69.34400000  *  161.34200000  * -49.46700000  *
   224       C         70.34900000  *  163.18200000  * -49.01700000  *
   225       H         70.22500000  *  163.93500000  * -48.24000000  *
   226       C         71.81400000  *  162.79200000  * -49.07000000  *
   227       H         71.97800000  *  162.06700000  * -49.86400000  *
   228       H         72.42900000  *  163.67700000  * -49.23900000  *
   229       H         72.10500000  *  162.33200000  * -48.12600000  *
   230       C         69.94400000  *  163.83800000  * -50.32200000  *
   231       O         69.22100000  *  163.25100000  * -51.12800000  *
   232       N         70.40700000  *  165.06400000  * -50.52400000  *
   233       H         70.93200000  *  165.53000000  * -49.79600000  *
   234       C         70.10800000  *  165.77900000  * -51.74600000  *
   235       H         69.54100000  *  165.15900000  * -52.44400000  *
   236       H         69.52200000  *  166.69100000  * -51.53000000  *
   237       H         71.05900000  *  166.04700000  * -52.23900000  *
   238       H         68.08600000  *  164.80700000  * -56.55000000  *
   239       C         68.21200000  *  164.39600000  * -55.53600000  *
   240       O         69.28600000  *  164.50800000  * -54.94200000  *
   241       N         67.13500000  *  163.82300000  * -55.01100000  *
   242       H         66.34000000  *  163.66800000  * -55.61500000  *
   243       C         67.13600000  *  163.21200000  * -53.68800000  *
   244       H         67.86300000  *  163.70700000  * -53.05000000  *
   245       C         65.75500000  *  163.32300000  * -53.02900000  *
   246       H         64.97700000  *  163.06900000  * -53.75000000  *
   247       C         65.64800000  *  162.36600000  * -51.85200000  *
   248       H         66.47200000  *  162.51800000  * -51.15200000  *
   249       H         64.69700000  *  162.53800000  * -51.34700000  *
   250       H         65.65200000  *  161.33900000  * -52.20000000  *
   251       C         65.54000000  *  164.75000000  * -52.56600000  *
   252       H         65.62600000  *  165.42400000  * -53.41600000  *
   253       H         64.53500000  *  164.85100000  * -52.15900000  *
   254       H         66.28400000  *  165.00300000  * -51.81000000  *
   255       C         67.52600000  *  161.76000000  * -53.84700000  *
   256       O         66.97900000  *  161.02800000  * -54.68200000  *
   257       N         68.49600000  *  161.34900000  * -53.04800000  *
   258       H         68.91100000  *  161.99700000  * -52.39100000  *
   259       C         69.01100000  *  159.99200000  * -53.10200000  *
   260       H         68.34600000  *  159.34100000  * -53.67900000  *
   261       C         70.37400000  *  159.97400000  * -53.81600000  *
   262       H         70.77500000  *  158.96500000  * -53.87500000  *
   263       C         70.21400000  *  160.50700000  * -55.21300000  *
   264       H         69.95700000  *  161.56600000  * -55.19000000  *
   265       H         71.15100000  *  160.39100000  * -55.75600000  *
   266       H         69.44200000  *  159.95000000  * -55.73600000  *
   267       C         71.37900000  *  160.85000000  * -53.05700000  *
   268       H         71.56500000  *  160.44500000  * -52.06400000  *
   269       H         72.31500000  *  160.84900000  * -53.61300000  *
   270       H         71.03600000  *  161.88400000  * -52.98400000  *
   271       C         69.19200000  *  159.37200000  * -51.72900000  *
   272       O         69.02000000  *  160.03600000  * -50.68600000  *
   273       N         69.37800000  *  158.05800000  * -51.70200000  *
   274       H         69.45200000  *  157.56300000  * -52.58700000  *
   275       C         69.75900000  *  157.32700000  * -50.50900000  *
   276       H         69.48400000  *  157.89600000  * -49.62300000  *
   277       C         69.00100000  *  156.00800000  * -50.45700000  *
   278       H         69.22600000  *  155.42400000  * -51.34600000  *
   279       H         69.29400000  *  155.44700000  * -49.56900000  *
   280       H         67.93200000  *  156.21300000  * -50.41300000  *
   281       C         71.27600000  *  157.14500000  * -50.54000000  *
   282       O         71.80700000  *  156.46900000  * -51.42600000  *
   283       N         71.97000000  *  157.79100000  * -49.60300000  *
   284       H         71.44500000  *  158.28300000  * -48.88900000  *
   285       C         73.41300000  *  157.73400000  * -49.53500000  *
   286       H         73.80300000  *  157.43200000  * -50.50200000  *
   287       C         73.96100000  *  159.11400000  * -49.18200000  *
   288       H         73.49200000  *  159.84000000  * -49.85100000  *
   289       H         73.62800000  *  159.35800000  * -48.16900000  *
   290       C         75.47300000  *  159.31600000  * -49.26600000  *
   291       H         75.96900000  *  158.63700000  * -48.57100000  *
   292       C         75.94900000  *  159.02000000  * -50.68400000  *
   293       H         75.44100000  *  159.71800000  * -51.34800000  *
   294       H         77.02400000  *  159.18800000  * -50.76300000  *
   295       H         75.74700000  *  157.98700000  * -50.96800000  *
   296       C         75.80400000  *  160.74000000  * -48.87900000  *
   297       H         75.43700000  *  160.94600000  * -47.87600000  *
   298       H         76.88200000  *  160.87900000  * -48.92200000  *
   299       H         75.32000000  *  161.42900000  * -49.57600000  *
   300       C         73.82100000  *  156.71600000  * -48.48500000  *
   301       O         73.39600000  *  156.78100000  * -47.33400000  *
   302       N         74.64500000  *  155.75000000  * -48.88300000  *
   303       H         74.88900000  *  155.72800000  * -49.87100000  *
   304       C         75.12700000  *  154.63500000  * -48.05500000  *
   305       H         74.60800000  *  154.62500000  * -47.09400000  *
   306       C         74.83100000  *  153.32500000  * -48.82200000  *
   307       H         74.28800000  *  153.56400000  * -49.73900000  *
   308       H         75.76200000  *  152.85000000  * -49.12800000  *
   309       C         73.98100000  *  152.28800000  * -48.08400000  *
   310       H         73.15800000  *  152.78400000  * -47.57000000  *
   311       H         73.55500000  *  151.64200000  * -48.85000000  *
   312       C         74.79900000  *  151.43200000  * -47.09800000  *
   313       H         75.75700000  *  151.17500000  * -47.55000000  *
   314       H         75.00300000  *  152.02500000  * -46.20300000  *
   315       C         74.08900000  *  150.12500000  * -46.69200000  *
   316       H         74.72400000  *  149.61100000  * -45.96500000  *
   317       H         73.14600000  *  150.37700000  * -46.19200000  *
   318       N         73.82700000  *  149.23200000  * -47.86100000  *
   319       H         74.65600000  *  149.06500000  * -48.41900000  *
   320       H         73.45700000  *  148.31000000  * -47.59900000  *
   321       H         73.09800000  *  149.62300000  * -48.45000000  *
   322       C         76.62100000  *  154.83700000  * -47.79400000  *
   323       O         77.41300000  *  154.65800000  * -48.71100000  *
   324       N         77.01700000  *  155.22600000  * -46.58100000  *
   325       H         76.29800000  *  155.26800000  * -45.86500000  *
   326       C         78.42200000  *  155.28900000  * -46.15900000  *
   327       H         79.06600000  *  155.59300000  * -46.98900000  *
   328       C         78.56700000  *  156.26000000  * -44.97900000  *
   329       H         78.02700000  *  155.87500000  * -44.10900000  *
   330       H         79.62500000  *  156.33900000  * -44.73000000  *
   331       C         78.01500000  *  157.64300000  * -45.34000000  *
   332       H         78.45100000  *  157.95800000  * -46.27300000  *
   333       H         76.93600000  *  157.57500000  * -45.50000000  *
   334       C         78.25100000  *  158.72500000  * -44.27900000  *
   335       H         77.97800000  *  159.68000000  * -44.73200000  *
   336       H         77.56000000  *  158.53300000  * -43.46900000  *
   337       C         79.67700000  *  158.85000000  * -43.70900000  *
   338       H         80.38400000  *  158.36300000  * -44.39700000  *
   339       H         79.95000000  *  159.91100000  * -43.68600000  *
   340       N         79.78800000  *  158.26900000  * -42.33500000  *
   341       H         79.63700000  *  157.26100000  * -42.37000000  *
   342       H         80.69600000  *  158.42600000  * -41.93200000  *
   343       H         79.10400000  *  158.64600000  * -41.70100000  *
   344       C         78.82300000  *  153.89100000  * -45.72900000  *
   345       O         78.09100000  *  153.31500000  * -44.93700000  *
   346       N         79.90700000  *  153.32000000  * -46.24700000  *
   347       H         80.40500000  *  153.76400000  * -47.01000000  *
   348       C         80.34300000  *  152.02200000  * -45.76800000  *
   349       H         79.49500000  *  151.49800000  * -45.35900000  *
   350       C         80.94400000  *  151.18600000  * -46.89500000  *
   351       H         81.78600000  *  151.78200000  * -47.16900000  *
   352       C         81.42400000  *  149.85200000  * -46.34500000  *
   353       H         80.65600000  *  149.35200000  * -45.75200000  *
   354       H         81.67900000  *  149.19900000  * -47.17900000  *
   355       H         82.34500000  *  149.95700000  * -45.76100000  *
   356       C         79.89700000  *  150.97600000  * -47.99700000  *
   357       H         79.60200000  *  151.87000000  * -48.50000000  *
   358       H         80.28300000  *  150.30500000  * -48.75000000  *
   359       C         78.59100000  *  150.36100000  * -47.52600000  *
   360       H         78.17700000  *  150.90100000  * -46.69000000  *
   361       H         77.89400000  *  150.33700000  * -48.36300000  *
   362       H         78.77100000  *  149.33300000  * -47.20900000  *
   363       C         81.33300000  *  152.07100000  * -44.61400000  *
   364       O         82.16700000  *  152.98000000  * -44.51900000  *
   365       N         81.21100000  *  151.07100000  * -43.74300000  *
   366       H         80.50300000  *  150.36100000  * -43.92800000  *
   367       C         82.04400000  *  150.90200000  * -42.55200000  *
   368       H         81.47500000  *  151.18100000  * -41.66300000  *
   369       H         82.35800000  *  149.86100000  * -42.45900000  *
   370       H         82.94700000  *  151.51400000  * -42.62000000  *
   371       H         81.25700000  *  144.04600000  * -57.89900000  *
   372       C         80.50000000  *  144.84100000  * -57.88800000  *
   373       O         79.71500000  *  144.99000000  * -58.82400000  *
   374       N         80.49900000  *  145.60300000  * -56.79700000  *
   375       H         81.28000000  *  145.52500000  * -56.16600000  *
   376       C         79.57000000  *  146.70600000  * -56.61200000  *
   377       H         78.57500000  *  146.34400000  * -56.42300000  *
   378       C         80.00500000  *  147.61000000  * -55.44200000  *
   379       H         80.89800000  *  148.18000000  * -55.68500000  *
   380       C         78.90600000  *  148.60800000  * -55.12500000  *
   381       H         77.92000000  *  148.14100000  * -55.17600000  *
   382       H         79.04500000  *  148.98700000  * -54.11600000  *
   383       H         78.93800000  *  149.43600000  * -55.83300000  *
   384       C         80.32100000  *  146.76200000  * -54.20900000  *
   385       H         81.19200000  *  146.13400000  * -54.40600000  *
   386       H         80.59400000  *  147.42200000  * -53.38900000  *
   387       C         79.18400000  *  145.87900000  * -53.76500000  *
   388       H         78.77800000  *  145.31100000  * -54.59400000  *
   389       H         79.50900000  *  145.12200000  * -53.06500000  *
   390       H         78.38800000  *  146.48300000  * -53.33500000  *
   391       C         79.54300000  *  147.54500000  * -57.87900000  *
   392       O         78.48200000  *  147.77900000  * -58.45100000  *
   393       N         80.72300000  *  147.98900000  * -58.30900000  *
   394       H         81.55800000  *  147.70100000  * -57.81200000  *
   395       C         80.85900000  *  148.80400000  * -59.51100000  *
   396       H         80.33900000  *  149.74600000  * -59.38600000  *
   397       H         81.92800000  *  148.98500000  * -59.72900000  *
   398       H         80.37800000  *  148.32200000  * -60.38100000  *
   399       H         78.96400000  *  146.08700000  * -61.65600000  *
   400       C         77.87300000  *  146.08700000  * -61.51600000  *
   401       O         77.11500000  *  145.89500000  * -62.46400000  *
   402       N         77.44600000  *  146.31800000  * -60.28000000  *
   403       H         78.13400000  *  146.42500000  * -59.54900000  *
   404       C         76.02800000  *  146.35200000  * -59.94500000  *
   405       H         75.53300000  *  145.47600000  * -60.35900000  *
   406       C         75.84100000  *  146.37400000  * -58.43100000  *
   407       H         76.20500000  *  147.30400000  * -58.01800000  *
   408       H         74.76300000  *  146.35700000  * -58.24200000  *
   409       C         76.47200000  *  145.22200000  * -57.65900000  *
   410       H         77.55000000  *  145.23900000  * -57.74900000  *
   411       C         76.08000000  *  145.34100000  * -56.19200000  *
   412       H         74.99900000  *  145.23000000  * -56.07700000  *
   413       H         76.57300000  *  144.55300000  * -55.62900000  *
   414       H         76.38500000  *  146.30900000  * -55.80100000  *
   415       C         75.99600000  *  143.89000000  * -58.23600000  *
   416       H         76.41500000  *  143.73000000  * -59.22900000  *
   417       H         76.32800000  *  143.07800000  * -57.59100000  *
   418       H         74.90500000  *  143.87400000  * -58.30500000  *
   419       C         75.32200000  *  147.55900000  * -60.54800000  *
   420       O         74.09500000  *  147.56800000  * -60.66200000  *
   421       N         76.08400000  *  148.63100000  * -60.82900000  *
   422       H         77.08200000  *  148.53500000  * -60.67700000  *
   423       C         75.60100000  *  149.83300000  * -61.53400000  *
   424       H         74.83700000  *  150.33500000  * -60.94100000  *
   425       H         76.43800000  *  150.53300000  * -61.75900000  *
   426       H         75.13800000  *  149.54900000  * -62.49200000  *
   427       H         62.79000000  *  145.77200000  * -59.27600000  *
   428       C         63.71000000  *  145.72000000  * -58.67500000  *
   429       O         63.77900000  *  145.02200000  * -57.66400000  *
   430       N         64.72400000  *  146.45200000  * -59.11400000  *
   431       H         64.63800000  *  147.05100000  * -59.92700000  *
   432       C         65.97100000  *  146.53500000  * -58.38100000  *
   433       H         65.88400000  *  146.09200000  * -57.38600000  *
   434       C         67.11600000  *  145.87700000  * -59.11400000  *
   435       H         67.33600000  *  146.42600000  * -60.03000000  *
   436       C         68.35100000  *  145.87800000  * -58.21400000  *
   437       H         68.14700000  *  145.31400000  * -57.31800000  *
   438       H         69.21000000  *  145.44500000  * -58.72400000  *
   439       H         68.64100000  *  146.89000000  * -57.94500000  *
   440       C         66.72800000  *  144.44400000  * -59.47800000  *
   441       H         66.54900000  *  143.87300000  * -58.56400000  *
   442       H         65.81500000  *  144.42400000  * -60.06800000  *
   443       C         67.77400000  *  143.72700000  * -60.29600000  *
   444       H         68.68300000  *  143.57700000  * -59.72200000  *
   445       H         67.37700000  *  142.75300000  * -60.59800000  *
   446       H         68.02300000  *  144.31300000  * -61.18000000  *
   447       C         66.29500000  *  148.01000000  * -58.22000000  *
   448       O         66.21200000  *  148.78000000  * -59.18400000  *
   449       N         66.54800000  *  148.43900000  * -56.98200000  *
   450       H         66.61700000  *  147.75800000  * -56.23100000  *
   451       C         66.89100000  *  149.83500000  * -56.68800000  *
   452       H         66.07700000  *  150.48200000  * -57.01500000  *
   453       C         67.09900000  *  150.03900000  * -55.18200000  *
   454       H         67.88400000  *  149.36700000  * -54.83100000  *
   455       C         67.50300000  *  151.47600000  * -54.84100000  *
   456       H         66.69500000  *  152.16900000  * -55.07500000  *
   457       H         67.73300000  *  151.52200000  * -53.78000000  *
   458       H         68.39300000  *  151.77000000  * -55.39300000  *
   459       C         65.81100000  *  149.73800000  * -54.41600000  *
   460       H         65.53600000  *  148.69200000  * -54.51600000  *
   461       H         65.97800000  *  149.94400000  * -53.36600000  *
   462       H         64.99800000  *  150.36000000  * -54.78700000  *
   463       C         68.15100000  *  150.21000000  * -57.46100000  *
   464       O         69.17700000  *  149.53600000  * -57.34400000  *
   465       N         68.08000000  *  151.28300000  * -58.25100000  *
   466       H         67.22500000  *  151.80400000  * -58.24500000  *
   467       C         69.18900000  *  151.69800000  * -59.08000000  *
   468       H         69.52500000  *  150.81900000  * -59.63900000  *
   469       C         68.73700000  *  152.76800000  * -60.08300000  *
   470       H         67.83400000  *  152.41100000  * -60.57900000  *
   471       H         68.47700000  *  153.68100000  * -59.53700000  *
   472       C         69.79100000  *  153.06900000  * -61.13100000  *
   473       H         70.72100000  *  153.35000000  * -60.64200000  *
   474       H         69.97400000  *  152.16800000  * -61.71600000  *
   475       C         69.35100000  *  154.17900000  * -62.08100000  *
   476       H         68.50200000  *  153.81400000  * -62.66100000  *
   477       H         69.02300000  *  155.05600000  * -61.52200000  *
   478       C         70.49800000  *  154.55900000  * -63.02400000  *
   479       H         71.33900000  *  154.89000000  * -62.40800000  *
   480       H         70.81900000  *  153.66100000  * -63.56600000  *
   481       N         70.11800000  *  155.62600000  * -63.99700000  *
   482       H         69.74700000  *  156.41600000  * -63.48300000  *
   483       H         70.92600000  *  155.93300000  * -64.52500000  *
   484       H         69.41500000  *  155.27800000  * -64.63600000  *
   485       C         70.36000000  *  152.21400000  * -58.25300000  *
   486       O         70.19400000  *  153.07400000  * -57.38700000  *
   487       N         71.53700000  *  151.64500000  * -58.50700000  *
   488       H         71.59600000  *  150.90400000  * -59.18600000  *
   489       C         72.75000000  *  152.07400000  * -57.83600000  *
   490       H         72.53800000  *  152.52600000  * -56.87100000  *
   491       C         73.72700000  *  150.91100000  * -57.67000000  *
   492       H         73.31500000  *  150.22100000  * -56.93700000  *
   493       H         73.77900000  *  150.36900000  * -58.62000000  *
   494       C         75.16700000  *  151.27300000  * -57.28800000  *
   495       H         75.65500000  *  151.80300000  * -58.10000000  *
   496       C         75.18300000  *  152.16500000  * -56.05900000  *
   497       H         74.60800000  *  151.72100000  * -55.25200000  *
   498       H         76.21000000  *  152.29600000  * -55.73500000  *
   499       H         74.78900000  *  153.14000000  * -56.31200000  *
   500       C         75.93300000  *  149.99400000  * -57.01300000  *
   501       H         75.98300000  *  149.42100000  * -57.93300000  *
   502       H         76.94600000  *  150.24200000  * -56.71200000  *
   503       H         75.43500000  *  149.41000000  * -56.23200000  *
   504       C         73.31900000  *  153.11300000  * -58.79500000  *
   505       O         73.76900000  *  152.77900000  * -59.89700000  *
   506       N         73.26700000  *  154.36900000  * -58.37800000  *
   507       H         72.92600000  *  154.57000000  * -57.44900000  *
   508       C         73.73400000  *  155.46600000  * -59.19700000  *
   509       H         73.47500000  *  155.26500000  * -60.23600000  *
   510       C         73.02500000  *  156.74200000  * -58.76000000  *
   511       H         73.45000000  *  157.06300000  * -57.80900000  *
   512       H         73.23600000  *  157.53300000  * -59.48700000  *
   513       C         71.51300000  *  156.60300000  * -58.58700000  *
   514       H         71.27400000  *  155.80900000  * -57.88500000  *
   515       C         70.97400000  *  157.88000000  * -58.01900000  *
   516       H         71.37000000  *  158.74600000  * -58.56000000  *
   517       H         69.88800000  *  157.89100000  * -58.09300000  *
   518       H         71.22100000  *  157.96000000  * -56.96600000  *
   519       C         70.85100000  *  156.29000000  * -59.92300000  *
   520       H         71.28300000  *  155.39700000  * -60.34200000  *
   521       H         69.78900000  *  156.14400000  * -59.75100000  *
   522       H         71.00300000  *  157.12700000  * -60.60700000  *
   523       C         75.24500000  *  155.67800000  * -59.15800000  *
   524       O         75.83900000  *  156.04700000  * -60.17600000  *
   525       N         75.86200000  *  155.44600000  * -57.99600000  *
   526       H         75.29500000  *  155.17900000  * -57.20400000  *
   527       C         77.30800000  *  155.64700000  * -57.82900000  *
   528       H         77.80800000  *  155.40400000  * -58.76600000  *
   529       C         77.60000000  *  157.11700000  * -57.51900000  *
   530       H         76.91700000  *  157.54400000  * -56.80300000  *
   531       H         78.58200000  *  157.17000000  * -57.04800000  *
   532       C         77.65600000  *  157.97500000  * -58.75600000  *
   533       O         78.67800000  *  157.91700000  * -59.48300000  *
   534       O         76.67400000  *  158.70400000  * -59.00000000  *
   535       C         77.97900000  *  154.81700000  * -56.73400000  *
   536       O         77.37100000  *  154.52100000  * -55.70400000  *
   537       N         79.24700000  *  154.47700000  * -56.96600000  *
   538       H         79.69800000  *  154.82400000  * -57.79800000  *
   539       C         80.06100000  *  153.73800000  * -56.00300000  *
   540       H         79.55400000  *  153.69900000  * -55.05200000  *
   541       C         80.36600000  *  152.29800000  * -56.50400000  *
   542       H         79.42700000  *  151.75200000  * -56.56200000  *
   543       C         80.98100000  *  152.34300000  * -57.88400000  *
   544       H         82.06600000  *  152.43300000  * -57.82100000  *
   545       H         80.74600000  *  151.41400000  * -58.37900000  *
   546       H         80.59600000  *  153.14500000  * -58.51000000  *
   547       C         81.29900000  *  151.58800000  * -55.53900000  *
   548       H         80.81100000  *  151.54900000  * -54.57200000  *
   549       H         81.47300000  *  150.57200000  * -55.87800000  *
   550       H         82.25900000  *  152.09200000  * -55.44900000  *
   551       C         81.36500000  *  154.53600000  * -55.81000000  *
   552       O         82.27000000  *  154.48900000  * -56.64700000  *
   553       N         81.45200000  *  155.28200000  * -54.71000000  *
   554       H         80.67600000  *  155.30400000  * -54.06400000  *
   555       C         82.62100000  *  156.11100000  * -54.44300000  *
   556       H         83.20500000  *  156.21800000  * -55.35800000  *
   557       H         82.32200000  *  157.12800000  * -54.14500000  *
   558       H         83.29700000  *  155.73900000  * -53.65600000  *
   559       H         84.58000000  *  155.17100000  * -47.07300000  *
   560       C         84.22500000  *  154.98400000  * -48.09100000  *
   561       O         84.63900000  *  155.65900000  * -49.04200000  *
   562       N         83.35800000  *  153.99100000  * -48.22200000  *
   563       H         83.13600000  *  153.42800000  * -47.41700000  *
   564       C         82.77600000  *  153.65100000  * -49.50600000  *
   565       H         83.37000000  *  154.04700000  * -50.31700000  *
   566       C         82.71900000  *  152.14000000  * -49.66000000  *
   567       H         83.74000000  *  151.87500000  * -49.95700000  *
   568       H         82.64400000  *  151.54600000  * -48.78400000  *
   569       C         81.82600000  *  151.61900000  * -50.77900000  *
   570       H         80.79100000  *  151.88400000  * -50.58700000  *
   571       C         82.25800000  *  152.23100000  * -52.09200000  *
   572       H         83.31100000  *  152.49100000  * -52.08900000  *
   573       H         82.09300000  *  151.51300000  * -52.88400000  *
   574       H         81.65400000  *  153.10900000  * -52.31200000  *
   575       C         81.89900000  *  150.09400000  * -50.82200000  *
   576       H         81.91300000  *  149.66400000  * -49.82700000  *
   577       H         81.05200000  *  149.70600000  * -51.39100000  *
   578       H         82.82500000  *  149.80300000  * -51.32100000  *
   579       C         81.36700000  *  154.23200000  * -49.54800000  *
   580       O         80.51800000  *  153.85700000  * -48.74500000  *
   581       N         81.13100000  *  155.16100000  * -50.46700000  *
   582       H         81.84500000  *  155.34800000  * -51.16200000  *
   583       C         79.82200000  *  155.78100000  * -50.60800000  *
   584       H         79.27400000  *  155.67000000  * -49.68700000  *
   585       C         79.96700000  *  157.27800000  * -50.86800000  *
   586       H         80.42300000  *  157.50400000  * -51.79700000  *
   587       H         78.95400000  *  157.66400000  * -50.98900000  *
   588       C         80.57600000  *  158.04300000  * -49.72300000  *
   589       C         79.79300000  *  158.48000000  * -48.65600000  *
   590       H         78.73500000  *  158.25400000  * -48.66900000  *
   591       C         80.35600000  *  159.18600000  * -47.59400000  *
   592       H         79.75300000  *  159.56200000  * -46.79700000  *
   593       C         81.71600000  *  159.45200000  * -47.58700000  *
   594       O         82.27600000  *  160.12500000  * -46.52100000  *
   595       H         83.20600000  *  160.30800000  * -46.74500000  *
   596       C         82.51400000  *  159.02600000  * -48.63700000  *
   597       H         83.58200000  *  159.23300000  * -48.65000000  *
   598       C         81.94100000  *  158.32800000  * -49.69800000  *
   599       H         82.57400000  *  157.98100000  * -50.50200000  *
   600       C         79.04800000  *  155.15800000  * -51.76500000  *
   601       O         79.54400000  *  155.08000000  * -52.88800000  *
   602       N         77.86200000  *  154.62400000  * -51.49500000  *
   603       H         77.53700000  *  154.64400000  * -50.53400000  *
   604       C         76.98100000  *  154.05400000  * -52.51200000  *
   605       H         77.50600000  *  154.00000000  * -53.46000000  *
   606       C         76.54800000  *  152.62300000  * -52.15200000  *
   607       H         75.86100000  *  152.67100000  * -51.31500000  *
   608       H         76.00000000  *  152.21700000  * -53.00300000  *
   609       C         77.68400000  *  151.65300000  * -51.78800000  *
   610       H         78.19700000  *  152.00300000  * -50.89300000  *
   611       C         77.11200000  *  150.26400000  * -51.50500000  *
   612       H         76.61800000  *  149.87200000  * -52.39500000  *
   613       H         77.91700000  *  149.58700000  * -51.21500000  *
   614       H         76.39400000  *  150.32100000  * -50.68800000  *
   615       C         78.69000000  *  151.52600000  * -52.92500000  *
   616       H         79.21100000  *  152.47100000  * -53.05800000  *
   617       H         79.42600000  *  150.76400000  * -52.67700000  *
   618       H         78.17800000  *  151.26000000  * -53.85000000  *
   619       C         75.78400000  *  154.98300000  * -52.67300000  *
   620       O         75.09800000  *  155.25500000  * -51.68300000  *
   621       N         75.54700000  *  155.50800000  * -53.87800000  *
   622       H         76.14500000  *  155.25500000  * -54.66000000  *
   623       C         74.40900000  *  156.37500000  * -54.09400000  *
   624       H         73.97600000  *  156.70200000  * -53.15000000  *
   625       C         74.83400000  *  157.63700000  * -54.81800000  *
   626       H         75.25500000  *  157.34500000  * -55.76600000  *
   627       C         73.61400000  *  158.52200000  * -55.10900000  *
   628       H         73.11700000  *  158.76900000  * -54.17500000  *
   629       H         73.94100000  *  159.43100000  * -55.61500000  *
   630       H         72.91600000  *  158.00900000  * -55.76200000  *
   631       C         75.84000000  *  158.38200000  * -53.94900000  *
   632       H         75.28100000  *  158.78400000  * -53.13000000  *
   633       H         76.65600000  *  157.75800000  * -53.60500000  *
   634       H         76.26100000  *  159.20400000  * -54.52500000  *
   635       C         73.31400000  *  155.64400000  * -54.85300000  *
   636       O         73.49500000  *  155.22100000  * -55.99400000  *
   637       N         72.18700000  *  155.42300000  * -54.17900000  *
   638       H         72.11300000  *  155.78000000  * -53.23100000  *
   639       C         71.00700000  *  154.76200000  * -54.73100000  *
   640       H         71.26400000  *  154.29900000  * -55.68000000  *
   641       C         70.53600000  *  153.66600000  * -53.77200000  *
   642       H         70.34700000  *  154.11100000  * -52.79600000  *
   643       H         69.58500000  *  153.28300000  * -54.13600000  *
   644       C         71.48700000  *  152.49600000  * -53.59900000  *
   645       C         71.40900000  *  151.38800000  * -54.46500000  *
   646       H         70.69700000  *  151.38200000  * -55.27700000  *
   647       C         72.24800000  *  150.27600000  * -54.27100000  *
   648       H         72.17800000  *  149.42200000  * -54.93100000  *
   649       C         73.17200000  *  150.27000000  * -53.21200000  *
   650       H         73.81600000  *  149.41300000  * -53.06200000  *
   651       C         73.25600000  *  151.37600000  * -52.34900000  *
   652       H         73.95800000  *  151.36400000  * -51.53000000  *
   653       C         72.42000000  *  152.49100000  * -52.54400000  *
   654       H         72.48600000  *  153.33900000  * -51.87500000  *
   655       C         69.87700000  *  155.76800000  * -54.97800000  *
   656       O         69.71900000  *  156.72600000  * -54.22100000  *
   657       N         69.07100000  *  155.55900000  * -56.02200000  *
   658       H         69.23800000  *  154.73900000  * -56.59700000  *
   659       C         67.81400000  *  156.30700000  * -56.20400000  *
   660       H         68.06300000  *  157.35400000  * -56.38000000  *
   661       C         67.05200000  *  155.78700000  * -57.43800000  *
   662       H         66.20600000  *  156.45200000  * -57.61300000  *
   663       H         67.71100000  *  155.83300000  * -58.30600000  *
   664       C         66.52900000  *  154.34800000  * -57.27700000  *
   665       H         67.37500000  *  153.68500000  * -57.08800000  *
   666       H         65.86300000  *  154.30100000  * -56.41900000  *
   667       C         65.72900000  *  153.82800000  * -58.47300000  *
   668       O         65.27900000  *  154.62300000  * -59.32900000  *
   669       O         65.50600000  *  152.59700000  * -58.51800000  *
   670       C         66.94300000  *  156.23100000  * -54.93300000  *
   671       O         66.82700000  *  155.16500000  * -54.33200000  *
   672       N         66.33700000  *  157.33100000  * -54.48400000  *
   673       H         66.40900000  *  158.19500000  * -55.00200000  *
   674       C         65.48600000  *  157.30200000  * -53.28800000  *
   675       H         65.98100000  *  156.69300000  * -52.52800000  *
   676       C         65.35300000  *  158.71300000  * -52.71200000  *
   677       H         66.34800000  *  159.08200000  * -52.46900000  *
   678       H         64.92600000  *  159.36600000  * -53.47400000  *
   679       C         64.50400000  *  158.79400000  * -51.45700000  *
   680       C         63.19100000  *  159.29900000  * -51.52000000  *
   681       H         62.78200000  *  159.63400000  * -52.46400000  *
   682       C         62.40600000  *  159.37100000  * -50.35600000  *
   683       H         61.39800000  *  159.75900000  * -50.41100000  *
   684       C         62.92900000  *  158.93300000  * -49.12700000  *
   685       H         62.32300000  *  158.98400000  * -48.23200000  *
   686       C         64.24000000  *  158.42800000  * -49.06100000  *
   687       H         64.64100000  *  158.09600000  * -48.11400000  *
   688       C         65.02700000  *  158.35800000  * -50.22500000  *
   689       H         66.03500000  *  157.97000000  * -50.17100000  *
   690       C         64.11000000  *  156.67200000  * -53.56300000  *
   691       O         63.44600000  *  157.02200000  * -54.54200000  *
   692       N         63.66100000  *  155.79200000  * -52.66300000  *
   693       H         64.28000000  *  155.53700000  * -51.90100000  *
   694       C         62.27400000  *  155.31900000  * -52.57000000  *
   695       H         61.66100000  *  155.83300000  * -53.31300000  *
   696       C         62.18200000  *  153.80600000  * -52.82900000  *
   697       H         62.92800000  *  153.28800000  * -52.22700000  *
   698       H         61.19800000  *  153.47800000  * -52.49000000  *
   699       C         62.33200000  *  153.42200000  * -54.31400000  *
   700       H         61.96900000  *  154.23500000  * -54.94200000  *
   701       C         63.78700000  *  153.11800000  * -54.67200000  *
   702       H         64.17300000  *  152.33500000  * -54.02200000  *
   703       H         63.85900000  *  152.80800000  * -55.71400000  *
   704       H         64.39200000  *  154.01200000  * -54.54100000  *
   705       C         61.50100000  *  152.17800000  * -54.63700000  *
   706       H         60.45800000  *  152.34900000  * -54.37100000  *
   707       H         61.54800000  *  151.97300000  * -55.70500000  *
   708       H         61.87400000  *  151.31700000  * -54.08600000  *
   709       C         61.69700000  *  155.67600000  * -51.19400000  *
   710       O         62.41100000  *  155.69700000  * -50.19500000  *
   711       N         60.41000000  *  156.00700000  * -51.15100000  *
   712       H         59.88900000  *  155.99400000  * -52.02000000  *
   713       C         59.78000000  *  156.70000000  * -50.02200000  *
   714       H         60.43900000  *  157.51500000  * -49.72300000  *
   715       C         58.46800000  *  157.33000000  * -50.50800000  *
   716       H         57.73300000  *  156.53900000  * -50.65900000  *
   717       H         58.10200000  *  158.00100000  * -49.73200000  *
   718       C         58.58800000  *  158.11000000  * -51.79800000  *
   719       N         58.61900000  *  157.55200000  * -53.08200000  *
   720       C         58.76600000  *  158.58600000  * -53.92900000  *
   721       H         58.82500000  *  158.50200000  * -55.00900000  *
   722       N         58.83400000  *  159.74200000  * -53.24700000  *
   723       H         58.94600000  *  160.66100000  * -53.66600000  *
   724       C         58.72700000  *  159.46300000  * -51.90200000  *
   725       H         58.75100000  *  160.17100000  * -51.08300000  *
   726       C         59.55400000  *  155.85500000  * -48.75500000  *
   727       O         59.44700000  *  156.42500000  * -47.66800000  *
   728       N         59.47100000  *  154.52300000  * -48.86700000  *
   729       H         59.58200000  *  154.11400000  * -49.78500000  *
   730       C         59.11100000  *  153.61500000  * -47.76500000  *
   731       H         59.58000000  *  153.97400000  * -46.84800000  *
   732       C         57.57900000  *  153.66300000  * -47.57200000  *
   733       H         57.30200000  *  154.68200000  * -47.29900000  *
   734       H         57.08200000  *  153.41900000  * -48.51300000  *
   735       C         57.06400000  *  152.71100000  * -46.48300000  *
   736       H         56.94400000  *  151.71600000  * -46.90700000  *
   737       H         57.79400000  *  152.65800000  * -45.67600000  *
   738       C         55.74300000  *  153.16700000  * -45.87600000  *
   739       O         55.69600000  *  153.88400000  * -44.89000000  *
   740       N         54.61500000  *  152.77500000  * -46.43100000  *
   741       H         53.76300000  *  153.10100000  * -46.00200000  *
   742       H         54.62300000  *  152.21300000  * -47.26300000  *
   743       C         59.61900000  *  152.18000000  * -48.00400000  *
   744       O         59.69000000  *  151.72900000  * -49.15000000  *
   745       N         59.95900000  *  151.45500000  * -46.93200000  *
   746       H         59.86800000  *  151.88400000  * -46.01100000  *
   747       C         60.28400000  *  150.02100000  * -46.99600000  *
   748       H         60.58100000  *  149.79900000  * -48.01700000  *
   749       C         61.51300000  *  149.68900000  * -46.12900000  *
   750       H         61.84400000  *  148.68400000  * -46.39300000  *
   751       H         62.31900000  *  150.37400000  * -46.39800000  *
   752       C         61.29600000  *  149.73200000  * -44.61300000  *
   753       O         60.31200000  *  149.13700000  * -44.12600000  *
   754       O         62.16300000  *  150.30700000  * -43.91300000  *
   755       C         59.07600000  *  149.10700000  * -46.69900000  *
   756       O         58.04400000  *  149.54000000  * -46.16900000  *
   757       N         59.19100000  *  147.81900000  * -47.04800000  *
   758       H         60.03800000  *  147.50900000  * -47.52500000  *
   759       C         58.10100000  *  146.88000000  * -46.84100000  *
   760       H         57.21800000  *  147.32500000  * -47.29300000  *
   761       C         58.41200000  *  145.57700000  * -47.59200000  *
   762       H         58.61300000  *  145.80400000  * -48.64400000  *
   763       H         59.28800000  *  145.12100000  * -47.15800000  *
   764       C         57.28700000  *  144.52700000  * -47.51900000  *
   765       H         57.05600000  *  144.28000000  * -46.48700000  *
   766       C         56.00700000  *  145.04400000  * -48.19600000  *
   767       H         56.23500000  *  145.37800000  * -49.20200000  *
   768       H         55.26800000  *  144.24500000  * -48.23100000  *
   769       H         55.59500000  *  145.87000000  * -47.62900000  *
   770       C         57.76800000  *  143.24900000  * -48.17500000  *
   771       H         58.61500000  *  142.85400000  * -47.62000000  *
   772       H         56.97300000  *  142.50400000  * -48.17100000  *
   773       H         58.06400000  *  143.44500000  * -49.20700000  *
   774       C         57.76400000  *  146.61300000  * -45.36900000  *
   775       O         56.60900000  *  146.37600000  * -45.03000000  *
   776       N         58.75700000  *  146.67700000  * -44.48800000  *
   777       H         59.64000000  *  147.08600000  * -44.79000000  *
   778       C         58.49100000  *  146.46700000  * -43.07300000  *
   779       H         57.97900000  *  145.55100000  * -42.87200000  *
   780       C         59.78200000  *  146.47800000  * -42.25400000  *
   781       H         60.44800000  *  145.70000000  * -42.62000000  *
   782       H         60.28600000  *  147.44000000  * -42.35600000  *
   783       C         59.49200000  *  146.22900000  * -40.76500000  *
   784       H         58.94200000  *  147.08300000  * -40.37400000  *
   785       H         58.87100000  *  145.33200000  * -40.67600000  *
   786       C         60.74500000  *  146.03800000  * -39.93500000  *
   787       H         61.36100000  *  145.25900000  * -40.37900000  *
   788       H         61.30800000  *  146.97100000  * -39.90700000  *
   789       C         60.37600000  *  145.60700000  * -38.51700000  *
   790       H         59.98500000  *  144.58900000  * -38.53700000  *
   791       H         61.27900000  *  145.61300000  * -37.90300000  *
   792       N         59.34600000  *  146.53100000  * -37.94700000  *
   793       H         58.44600000  *  146.48100000  * -38.44300000  *
   794       H         59.09000000  *  146.27800000  * -37.00400000  *
   795       H         59.61300000  *  147.50600000  * -37.97800000  *
   796       C         57.55800000  *  147.53800000  * -42.51200000  *
   797       O         56.61300000  *  147.23400000  * -41.78300000  *
   798       N         57.83600000  *  148.81600000  * -42.79800000  *
   799       H         58.66400000  *  149.01300000  * -43.36600000  *
   800       C         56.99600000  *  149.92400000  * -42.32100000  *
   801       H         56.88000000  *  149.82700000  * -41.24000000  *
   802       C         57.66500000  *  151.27700000  * -42.60700000  *
   803       H         58.66400000  *  151.27600000  * -42.16700000  *
   804       H         57.75700000  *  151.42300000  * -43.68300000  *
   805       C         56.84800000  *  152.42700000  * -41.99100000  *
   806       H         55.88600000  *  152.49500000  * -42.49800000  *
   807       H         56.66800000  *  152.21100000  * -40.93600000  *
   808       C         57.56200000  *  153.78000000  * -42.09800000  *
   809       H         58.48700000  *  153.74100000  * -41.52100000  *
   810       H         57.79300000  *  153.98600000  * -43.14400000  *
   811       C         56.64700000  *  154.87900000  * -41.54100000  *
   812       H         55.73100000  *  154.90600000  * -42.13900000  *
   813       H         56.36800000  *  154.61400000  * -40.51600000  *
   814       N         57.30200000  *  156.21200000  * -41.55400000  *
   815       H         57.54500000  *  156.49300000  * -42.49300000  *
   816       H         56.68700000  *  156.91900000  * -41.17600000  *
   817       H         58.14300000  *  156.21400000  * -40.99600000  *
   818       C         55.59700000  *  149.82200000  * -42.92000000  *
   819       O         54.61400000  *  150.05000000  * -42.22100000  *
   820       N         55.49500000  *  149.42600000  * -44.18900000  *
   821       H         56.35000000  *  149.26300000  * -44.71300000  *
   822       C         54.20500000  *  149.26000000  * -44.85200000  *
   823       H         53.62600000  *  150.17500000  * -44.72500000  *
   824       C         54.41000000  *  148.98800000  * -46.34000000  *
   825       H         54.98900000  *  149.80200000  * -46.77700000  *
   826       H         55.00200000  *  148.07700000  * -46.45200000  *
   827       C         53.12600000  *  148.85300000  * -47.10800000  *
   828       C         52.23100000  *  149.92200000  * -47.18600000  *
   829       H         52.46300000  *  150.85600000  * -46.69900000  *
   830       C         51.01500000  *  149.79500000  * -47.88400000  *
   831       H         50.32500000  *  150.62800000  * -47.91800000  *
   832       C         50.69700000  *  148.60300000  * -48.50200000  *
   833       H         49.75200000  *  148.50200000  * -49.02000000  *
   834       C         51.58700000  *  147.52100000  * -48.43200000  *
   835       H         51.33500000  *  146.58300000  * -48.91200000  *
   836       C         52.79500000  *  147.65400000  * -47.73300000  *
   837       H         53.46700000  *  146.81000000  * -47.67200000  *
   838       C         53.37400000  *  148.12200000  * -44.22700000  *
   839       O         52.16900000  *  148.28300000  * -44.00900000  *
   840       N         54.01600000  *  146.98100000  * -43.96600000  *
   841       H         55.00900000  *  146.90600000  * -44.17900000  *
   842       C         53.33800000  *  145.83600000  * -43.34100000  *
   843       H         52.47600000  *  145.52800000  * -43.93400000  *
   844       C         54.29200000  *  144.65000000  * -43.17000000  *
   845       H         55.15800000  *  145.02700000  * -42.63600000  *
   846       H         53.80700000  *  143.89200000  * -42.54700000  *
   847       C         54.73100000  *  144.00400000  * -44.46100000  *
   848       H         53.84700000  *  143.61400000  * -44.95900000  *
   849       H         55.19200000  *  144.69400000  * -45.15000000  *
   850       S         55.79700000  *  142.58100000  * -44.15400000  *
   851       C         57.05400000  *  143.29200000  * -43.18800000  *
   852       H         56.67800000  *  143.65800000  * -42.23500000  *
   853       H         57.80700000  *  142.53400000  * -42.98200000  *
   854       H         57.44300000  *  144.07900000  * -43.80900000  *
   855       C         52.84400000  *  146.26000000  * -41.95900000  *
   856       O         51.68200000  *  146.03200000  * -41.61400000  *
   857       N         53.72600000  *  146.88400000  * -41.17900000  *
   858       H         54.70100000  *  146.95700000  * -41.45300000  *
   859       C         53.34300000  *  147.35100000  * -39.84600000  *
   860       H         53.03400000  *  146.49700000  * -39.23800000  *
   861       C         54.50500000  *  148.07700000  * -39.15700000  *
   862       H         54.94100000  *  148.81500000  * -39.83000000  *
   863       H         54.12400000  *  148.60600000  * -38.28400000  *
   864       C         55.58400000  *  147.11500000  * -38.68500000  *
   865       O         55.26200000  *  145.90900000  * -38.57600000  *
   866       O         56.73300000  *  147.55200000  * -38.41700000  *
   867       C         52.15000000  *  148.27900000  * -39.96300000  *
   868       O         51.20300000  *  148.18000000  * -39.18700000  *
   869       N         52.18300000  *  149.16200000  * -40.95500000  *
   870       H         53.01600000  *  149.23700000  * -41.51800000  *
   871       C         51.08600000  *  150.10000000  * -41.17300000  *
   872       H         50.93100000  *  150.67400000  * -40.25800000  *
   873       C         51.42800000  *  151.06800000  * -42.31500000  *
   874       H         51.45500000  *  150.53900000  * -43.26600000  *
   875       H         50.66000000  *  151.83800000  * -42.36800000  *
   876       H         52.39300000  *  151.53600000  * -42.12800000  *
   877       C         49.78900000  *  149.37000000  * -41.49900000  *
   878       O         48.71100000  *  149.83600000  * -41.15600000  *
   879       N         49.90500000  *  148.22900000  * -42.16400000  *
   880       H         50.83800000  *  147.88500000  * -42.38200000  *
   881       C         48.74000000  *  147.45400000  * -42.57500000  *
   882       H         47.85700000  *  148.08600000  * -42.62800000  *
   883       H         48.90600000  *  147.02300000  * -43.58600000  *
   884       H         48.52600000  *  146.61900000  * -41.88800000  *
   885       H         72.54500000  *  137.05800000  * -55.15200000  *
   886       C         72.38600000  *  137.90500000  * -54.47400000  *
   887       O         73.28300000  *  138.71900000  * -54.28600000  *
   888       N         71.20100000  *  138.01500000  * -53.89800000  *
   889       H         70.47300000  *  137.31400000  * -54.05700000  *
   890       C         70.96800000  *  139.10000000  * -52.94900000  *
   891       H         71.50000000  *  140.00600000  * -53.22900000  *
   892       C         69.47700000  *  139.40500000  * -52.82500000  *
   893       H         69.09300000  *  139.71900000  * -53.79200000  *
   894       H         68.93000000  *  138.50600000  * -52.53300000  *
   895       C         69.17800000  *  140.45400000  * -51.81200000  *
   896       N         69.23000000  *  140.42300000  * -50.45900000  *
   897       C         68.94700000  *  141.69100000  * -50.01400000  *
   898       H         68.96900000  *  142.01200000  * -48.98400000  *
   899       N         68.72400000  *  142.47200000  * -51.05500000  *
   900       H         68.47200000  *  143.44500000  * -51.00700000  *
   901       C         68.85400000  *  141.75000000  * -52.15500000  *
   902       H         68.77100000  *  142.12600000  * -53.16500000  *
   903       C         71.52100000  *  138.65700000  * -51.58300000  *
   904       O         72.28000000  *  139.38000000  * -50.94700000  *
   905       N         71.11400000  *  137.47100000  * -51.14500000  *
   906       H         70.37100000  *  137.01600000  * -51.66500000  *
   907       C         71.55500000  *  136.88000000  * -49.87700000  *
   908       H         71.18200000  *  135.84900000  * -49.87900000  *
   909       C         73.07600000  *  136.85300000  * -49.83700000  *
   910       H         73.53100000  *  137.83300000  * -49.86900000  *
   911       H         73.36600000  *  136.47900000  * -48.85100000  *
   912       C         73.64700000  *  135.85900000  * -50.81700000  *
   913       H         73.29800000  *  134.87100000  * -50.67200000  *
   914       H         73.21600000  *  136.10500000  * -51.78700000  *
   915       C         75.11700000  *  136.08400000  * -50.99900000  *
   916       H         75.61200000  *  135.95400000  * -50.03300000  *
   917       H         75.49500000  *  135.33200000  * -51.69500000  *
   918       N         75.35800000  *  137.42700000  * -51.50600000  *
   919       H         74.62100000  *  138.12700000  * -51.38200000  *
   920       C         76.54800000  *  137.85900000  * -51.89000000  *
   921       N         77.59300000  *  137.04400000  * -51.81500000  *
   922       H         77.44700000  *  136.21200000  * -51.26800000  *
   923       H         78.49900000  *  137.44300000  * -51.92100000  *
   924       N         76.69000000  *  139.09300000  * -52.35600000  *
   925       H         75.86000000  *  139.69200000  * -52.33800000  *
   926       H         77.56200000  *  139.47800000  * -52.67100000  *
   927       C         71.03700000  *  137.42400000  * -48.54200000  *
   928       O         71.18700000  *  136.76800000  * -47.50900000  *
   929       N         70.43700000  *  138.60400000  * -48.51600000  *
   930       H         70.32800000  *  139.16900000  * -49.34700000  *
   931       C         69.93700000  *  139.07600000  * -47.23100000  *
   932       H         69.76500000  *  138.24900000  * -46.54100000  *
   933       C         70.93500000  *  140.04200000  * -46.56200000  *
   934       H         71.90900000  *  139.56600000  * -46.50900000  *
   935       H         71.04400000  *  140.94300000  * -47.17900000  *
   936       C         70.51300000  *  140.42800000  * -45.14700000  *
   937       O         70.17200000  *  139.51500000  * -44.35500000  *
   938       O         70.51000000  *  141.64400000  * -44.82500000  *
   939       C         68.58700000  *  139.73400000  * -47.37800000  *
   940       O         68.35000000  *  140.81000000  * -46.83500000  *
   941       N         67.68700000  *  139.08300000  * -48.11000000  *
   942       H         67.94300000  *  138.20800000  * -48.54500000  *
   943       C         66.35900000  *  139.64900000  * -48.29900000  *
   944       H         66.47700000  *  140.66700000  * -48.65900000  *
   945       C         65.54600000  *  138.81300000  * -49.28800000  *
   946       H         65.58300000  *  137.78400000  * -48.94500000  *
   947       H         64.50600000  *  139.14000000  * -49.25500000  *
   948       C         66.02700000  *  138.85500000  * -50.73600000  *
   949       H         67.06400000  *  138.52800000  * -50.78200000  *
   950       C         65.17300000  *  137.91700000  * -51.58300000  *
   951       H         64.15900000  *  138.30500000  * -51.68800000  *
   952       H         65.63400000  *  137.80700000  * -52.55000000  *
   953       H         65.13400000  *  136.93500000  * -51.11000000  *
   954       C         65.92100000  *  140.27700000  * -51.26400000  *
   955       H         66.42000000  *  140.99600000  * -50.63300000  *
   956       H         66.44200000  *  140.27500000  * -52.20900000  *
   957       H         64.88200000  *  140.56100000  * -51.39700000  *
   958       C         65.59400000  *  139.73400000  * -46.98200000  *
   959       O         65.58600000  *  138.79200000  * -46.16600000  *
   960       N         64.95300000  *  140.85400000  * -46.74800000  *
   961       H         64.96200000  *  141.58500000  * -47.44700000  *
   962       C         64.16300000  *  141.06100000  * -45.55000000  *
   963       H         63.55100000  *  140.17000000  * -45.41200000  *
   964       C         65.04000000  *  141.22400000  * -44.29000000  *
   965       H         64.40400000  *  141.29900000  * -43.40800000  *
   966       H         65.62900000  *  140.31500000  * -44.16600000  *
   967       C         65.98900000  *  142.42900000  * -44.30100000  *
   968       H         66.41200000  *  142.56000000  * -45.29500000  *
   969       H         65.44100000  *  143.32900000  * -44.02200000  *
   970       C         67.13000000  *  142.16600000  * -43.31400000  *
   971       H         66.71900000  *  141.90800000  * -42.33500000  *
   972       H         67.70600000  *  141.31600000  * -43.68700000  *
   973       C         68.04700000  *  143.38200000  * -43.16800000  *
   974       H         68.16400000  *  143.86200000  * -44.14600000  *
   975       H         67.56800000  *  144.10300000  * -42.49600000  *
   976       N         69.37300000  *  142.96600000  * -42.64300000  *
   977       H         69.87000000  *  142.40300000  * -43.34700000  *
   978       H         69.93900000  *  143.77100000  * -42.40300000  *
   979       H         69.26800000  *  142.40700000  * -41.80700000  *
   980       C         63.26400000  *  142.22900000  * -45.84000000  *
   981       O         63.62500000  *  143.07400000  * -46.65900000  *
   982       N         62.11200000  *  142.30300000  * -45.18600000  *
   983       C         61.62600000  *  141.34600000  * -44.17100000  *
   984       H         62.10000000  *  141.53200000  * -43.20900000  *
   985       H         61.74500000  *  140.31100000  * -44.47600000  *
   986       C         60.16400000  *  141.66900000  * -44.09500000  *
   987       H         59.73700000  *  141.34900000  * -43.14300000  *
   988       H         59.63700000  *  141.20600000  * -44.93200000  *
   989       C         60.16000000  *  143.18900000  * -44.24800000  *
   990       H         60.51600000  *  143.64900000  * -43.32100000  *
   991       H         59.20200000  *  143.56500000  * -44.57400000  *
   992       C         61.14500000  *  143.38000000  * -45.40300000  *
   993       H         60.63400000  *  143.20500000  * -46.34500000  *
   994       C         61.77100000  *  144.77100000  * -45.44800000  *
   995       O         61.39200000  *  145.58400000  * -46.27300000  *
   996       N         62.73100000  *  145.08600000  * -44.56000000  *
   997       H         62.97300000  *  144.39500000  * -43.86500000  *
   998       C         63.45200000  *  146.38200000  * -44.53000000  *
   999       H         62.72200000  *  147.18900000  * -44.43700000  *
  1000       C         64.40200000  *  146.44100000  * -43.31900000  *
  1001       H         65.09100000  *  145.59800000  * -43.36600000  *
  1002       H         64.99400000  *  147.35600000  * -43.39100000  *
  1003       C         63.70100000  *  146.45400000  * -41.95400000  *
  1004       H         63.00900000  *  147.29700000  * -41.92200000  *
  1005       H         63.13600000  *  145.53300000  * -41.82400000  *
  1006       C         64.70200000  *  146.57000000  * -40.80300000  *
  1007       O         65.72300000  *  145.89700000  * -40.76000000  *
  1008       N         64.45300000  *  147.41000000  * -39.82100000  *
  1009       H         65.12400000  *  147.47400000  * -39.06900000  *
  1010       H         63.64200000  *  148.00700000  * -39.84100000  *
  1011       C         64.29700000  *  146.67500000  * -45.78800000  *
  1012       O         64.53100000  *  147.83300000  * -46.12800000  *
  1013       N         64.76100000  *  145.62900000  * -46.47600000  *
  1014       H         64.45300000  *  144.71100000  * -46.19000000  *
  1015       C         65.53700000  *  145.69600000  * -47.71600000  *
  1016       H         66.09400000  *  146.63500000  * -47.75000000  *
  1017       C         66.55600000  *  144.52600000  * -47.74300000  *
  1018       H         66.06800000  *  143.60300000  * -47.44300000  *
  1019       H         66.90800000  *  144.37900000  * -48.76200000  *
  1020       C         67.80400000  *  144.74200000  * -46.89400000  *
  1021       O         68.12500000  *  145.84300000  * -46.47400000  *
  1022       N         68.56000000  *  143.70200000  * -46.61500000  *
  1023       H         69.45100000  *  143.86800000  * -46.17400000  *
  1024       H         68.30700000  *  142.74700000  * -46.85400000  *
  1025       C         64.63300000  *  145.70500000  * -48.96700000  *
  1026       O         65.15600000  *  145.62000000  * -50.07600000  *
  1027       N         63.30000000  *  145.80300000  * -48.83400000  *
  1028       H         62.89500000  *  145.87300000  * -47.90900000  *
  1029       C         62.40600000  *  145.84500000  * -49.97900000  *
  1030       H         62.94700000  *  145.74800000  * -50.91900000  *
  1031       C         61.36900000  *  144.72100000  * -49.88900000  *
  1032       H         60.76900000  *  144.86100000  * -48.99200000  *
  1033       H         60.74400000  *  144.79800000  * -50.77200000  *
  1034       C         62.03600000  *  143.32400000  * -49.85900000  *
  1035       H         62.67100000  *  143.24000000  * -48.98800000  *
  1036       C         61.00200000  *  142.26000000  * -49.77100000  *
  1037       H         60.24600000  *  142.42800000  * -50.53400000  *
  1038       H         61.44700000  *  141.27100000  * -49.89000000  *
  1039       H         60.52000000  *  142.31900000  * -48.79800000  *
  1040       C         62.89500000  *  143.12600000  * -51.08400000  *
  1041       H         63.82900000  *  143.66800000  * -50.95600000  *
  1042       H         63.12900000  *  142.06900000  * -51.20900000  *
  1043       H         62.39300000  *  143.49200000  * -51.96600000  *
  1044       C         61.76300000  *  147.21800000  * -49.95200000  *
  1045       O         61.15000000  *  147.60200000  * -48.96600000  *
  1046       N         61.89600000  *  147.98900000  * -51.02500000  *
  1047       H         62.38800000  *  147.62000000  * -51.83300000  *
  1048       C         61.44500000  *  149.38100000  * -51.05500000  *
  1049       H         61.05500000  *  149.67600000  * -50.08300000  *
  1050       C         62.61500000  *  150.30500000  * -51.38200000  *
  1051       H         62.94600000  *  150.10200000  * -52.40100000  *
  1052       H         62.24800000  *  151.32800000  * -51.32900000  *
  1053       C         63.81800000  *  150.15800000  * -50.44400000  *
  1054       H         64.25600000  *  149.16800000  * -50.55800000  *
  1055       C         64.83600000  *  151.20400000  * -50.84800000  *
  1056       H         64.45800000  *  152.18900000  * -50.58400000  *
  1057       H         65.77200000  *  151.00600000  * -50.33400000  *
  1058       H         65.01000000  *  151.18500000  * -51.91800000  *
  1059       C         63.48700000  *  150.38500000  * -48.97100000  *
  1060       H         62.86400000  *  149.57000000  * -48.61200000  *
  1061       H         64.40200000  *  150.39000000  * -48.38100000  *
  1062       H         62.95900000  *  151.33100000  * -48.84100000  *
  1063       C         60.32400000  *  149.56300000  * -52.06100000  *
  1064       O         60.42400000  *  149.10300000  * -53.18600000  *
  1065       N         59.26800000  *  150.25600000  * -51.67700000  *
  1066       H         59.36500000  *  150.76300000  * -50.80000000  *
  1067       C         58.08300000  *  150.44700000  * -52.50800000  *
  1068       H         58.17300000  *  149.92400000  * -53.45700000  *
  1069       C         56.81900000  *  149.90600000  * -51.78600000  *
  1070       H         55.94300000  *  150.08700000  * -52.41500000  *
  1071       C         56.95000000  *  148.40400000  * -51.54300000  *
  1072       H         57.75300000  *  148.18300000  * -50.83300000  *
  1073       H         56.01300000  *  148.00400000  * -51.15200000  *
  1074       H         57.15800000  *  147.91500000  * -52.48900000  *
  1075       C         56.64700000  *  150.60600000  * -50.43300000  *
  1076       H         57.48200000  *  150.38000000  * -49.77500000  *
  1077       H         56.60500000  *  151.68300000  * -50.57600000  *
  1078       C         55.37000000  *  150.22200000  * -49.68600000  *
  1079       H         55.48900000  *  149.24800000  * -49.22200000  *
  1080       H         55.17000000  *  150.96500000  * -48.91000000  *
  1081       H         54.52900000  *  150.16800000  * -50.38500000  *
  1082       C         57.87200000  *  151.93000000  * -52.81700000  *
  1083       O         58.38200000  *  152.79400000  * -52.10000000  *
  1084       N         57.14900000  *  152.22000000  * -53.89700000  *
  1085       H         56.70500000  *  151.48200000  * -54.43300000  *
  1086       C         56.84100000  *  153.60200000  * -54.22700000  *
  1087       H         57.16800000  *  154.27800000  * -53.43100000  *
  1088       C         57.50400000  *  154.05300000  * -55.54100000  *
  1089       H         57.21800000  *  155.07000000  * -55.80500000  *
  1090       H         58.58200000  *  154.04400000  * -55.38800000  *
  1091       C         57.19300000  *  153.14600000  * -56.70100000  *
  1092       O         56.13500000  *  152.53500000  * -56.76400000  *
  1093       N         58.11500000  *  153.07200000  * -57.64100000  *
  1094       H         57.83300000  *  152.61700000  * -58.48600000  *
  1095       H         58.88600000  *  153.71500000  * -57.62100000  *
  1096       C         55.33100000  *  153.75800000  * -54.32100000  *
  1097       O         54.57600000  *  152.79900000  * -54.11400000  *
  1098       N         54.88500000  *  154.97100000  * -54.62100000  *
  1099       H         55.52100000  *  155.73600000  * -54.79200000  *
  1100       C         53.46400000  *  155.24700000  * -54.72300000  *
  1101       H         52.92700000  *  154.82600000  * -53.87200000  *
  1102       C         53.20900000  *  156.78000000  * -54.75500000  *
  1103       H         52.16900000  *  156.98000000  * -55.02600000  *
  1104       C         53.47800000  *  157.39700000  * -53.41000000  *
  1105       H         54.52100000  *  157.25500000  * -53.13000000  *
[...]
 1005  H   0.82989
 1006  C   1.06533   0.79640   0.73476   0.79828
 1007  O   1.87721   1.40711   1.57834   1.83304
 1008  N   1.52728   1.34911   1.42105   1.30373
 1009  H   0.65740
 1010  H   0.66196
 1011  C   1.08390   0.75759   0.78130   0.81373
 1012  O   1.88499   1.65877   1.31034   1.73843
 1013  N   1.55182   1.50766   1.20320   1.30068
 1014  H   0.66538
 1015  C   1.07293   0.94646   1.09641   0.82026
 1016  H   0.80384
 1017  C   1.07080   1.04590   1.08897   1.16777
 1018  H   0.83116
 1019  H   0.79647
 1020  C   1.05897   0.80904   0.76713   0.75047
 1021  O   1.87660   1.77537   1.38801   1.63274
 1022  N   1.53151   1.30227   1.19182   1.59642
 1023  H   0.66284
 1024  H   0.65428
 1025  C   1.08754   0.78508   0.72002   0.85306
 1026  O   1.87877   1.76661   1.60973   1.37982
 1027  N   1.54115   1.12600   1.66542   1.18337
 1028  H   0.65404
 1029  C   1.06981   0.96889   0.97940   0.97465
 1030  H   0.81092
 1031  C   1.06731   1.06443   0.99778   1.17272
 1032  H   0.83726
 1033  H   0.84821
 1034  C   1.04102   1.01194   0.94616   1.06232
 1035  H   0.85569
 1036  C   1.04922   1.12587   1.11846   1.17073
 1037  H   0.84494
 1038  H   0.84887
 1039  H   0.86571
 1040  C   1.05155   1.14151   1.17179   1.09904
 1041  H   0.84469
 1042  H   0.85752
 1043  H   0.84986
 1044  C   1.07687   0.74956   0.84291   0.75544
 1045  O   1.87193   1.53800   1.79746   1.44553
 1046  N   1.54605   1.55512   1.17105   1.24924
 1047  H   0.64564
 1048  C   1.06560   0.98871   0.82589   1.09932
 1049  H   0.81410
 1050  C   1.06472   1.02302   1.10365   1.12717
 1051  H   0.84694
 1052  H   0.84086
 1053  C   1.04799   0.96850   1.07081   0.96887
 1054  H   0.86575
 1055  C   1.05396   1.12647   1.12773   1.16571
 1056  H   0.84621
 1057  H   0.84812
 1058  H   0.86034
 1059  C   1.05506   1.17603   1.17710   1.04567
 1060  H   0.84081
 1061  H   0.85220
 1062  H   0.84732
 1063  C   1.07597   0.79793   0.74362   0.81761
 1064  O   1.86889   1.83043   1.62487   1.34195
 1065  N   1.54139   1.19122   1.47033   1.29547
 1066  H   0.64524
 1067  C   1.07607   0.88882   1.00762   1.04142
 1068  H   0.81026
 1069  C   1.06431   1.01524   0.99280   1.01966
 1070  H   0.85025
 1071  C   1.05464   1.18115   1.03427   1.17645
 1072  H   0.84322
 1073  H   0.84521
 1074  H   0.85341
 1075  C   1.05402   1.06965   1.12051   1.03141
 1076  H   0.84547
 1077  H   0.86062
 1078  C   1.05246   1.08955   1.15704   1.13164
 1079  H   0.84847
 1080  H   0.87848
 1081  H   0.84687
 1082  C   1.08601   0.74332   0.88713   0.74328
 1083  O   1.88687   1.56790   1.57590   1.55670
 1084  N   1.54281   1.50707   1.14427   1.33734
 1085  H   0.64405
 1086  C   1.06255   0.97151   0.88390   1.03849
 1087  H   0.80177
 1088  C   1.07232   1.18080   1.12641   1.02304
 1089  H   0.81070
 1090  H   0.80523
 1091  C   1.06110   0.76092   0.77011   0.82330
 1092  O   1.88003   1.35612   1.56982   1.83616
 1093  N   1.53431   1.29816   1.49539   1.27246
 1094  H   0.67208
 1095  H   0.66484
 1096  C   1.08286   0.88437   0.75860   0.71178
 1097  O   1.88760   1.65483   1.46932   1.59064
 1098  N   1.54005   1.14474   1.19781   1.67144
 1099  H   0.66276
 1100  C   1.08546   0.83777   1.05805   1.08169
 1101  H   0.80394
 1102  C   1.08420   0.99112   0.86694   0.88980
 1103  H   0.84707
 1104  C   1.05387   1.18474   1.17988   1.05476
 1105  H   0.84075
 1106  H   0.82462
 1107  H   0.82924
 1108  O   1.84892   1.59193   1.82282   1.34479
 1109  H   0.64311
 1110  C   1.07352   0.78882   0.75511   0.82430
 1111  O   1.87779   1.28024   1.68940   1.84908
 1112  N   1.53339   1.19373   1.53457   1.21096
 1113  H   0.66682
 1114  C   1.05706   1.15370   1.13336   0.89327
 1115  H   0.83544
 1116  H   0.83790
 1117  H   0.83545
 1118  H   0.83956
 1119  C   1.10508   0.75503   0.73542   0.91359
 1120  O   1.88315   1.71066   1.59654   1.48262
 1121  N   1.54487   1.42792   1.34581   1.20811
 1122  H   0.65352
 1123  C   1.08072   0.93114   1.08443   0.93151
 1124  H   0.80978
 1125  C   1.07314   1.07906   0.95371   0.98250
 1126  H   0.84397
 1127  C   1.05809   1.18715   1.08396   1.12928
 1128  H   0.84349
 1129  H   0.84841
 1130  H   0.85202
 1131  C   1.05415   1.07584   1.13455   1.01862
 1132  H   0.85359
 1133  H   0.85477
 1134  C   1.04918   1.14385   1.15090   1.09049
 1135  H   0.84996
 1136  H   0.85970
 1137  H   0.84945
 1138  C   1.07225   0.84162   0.73670   0.77775
 1139  O   1.87774   1.89038   1.52091   1.39066
 1140  N   1.54474   1.10309   1.52640   1.33536
 1141  H   0.63259
 1142  C   1.06987   0.84602   1.05350   1.03804
 1143  H   0.81787
 1144  C   1.06009   1.09261   1.04641   1.09616
 1145  H   0.83630
 1146  H   0.84633
 1147  C   1.05106   1.08574   1.04434   1.07804
 1148  H   0.84972
 1149  H   0.84472
 1150  C   1.05938   1.08228   1.05506   1.09803
 1151  H   0.84178
 1152  H   0.83219
 1153  C   1.07893   1.02194   0.99732   1.07427
 1154  H   0.81121
 1155  H   0.83336
 1156  N   1.45913   1.23102   1.22868   1.25599
 1157  H   0.69616
 1158  H   0.69965
 1159  H   0.68615
 1160  C   1.07822   0.77995   0.75061   0.82547
 1161  O   1.88120   1.77240   1.69281   1.29049
 1162  N   1.54483   1.32885   1.42535   1.23092
 1163  H   0.64046
 1164  C   1.07020   0.91861   0.95763   1.02895
 1165  H   0.83206
 1166  C   1.06276   1.10005   1.01925   1.13292
 1167  H   0.83526
 1168  H   0.84469
 1169  C   1.05373   1.07066   0.96115   0.96346
 1170  H   0.85980
 1171  C   1.06223   1.16613   1.13936   1.09226
 1172  H   0.85184
 1173  H   0.84925
 1174  H   0.85269
 1175  C   1.05739   1.18269   1.13695   1.08880
 1176  H   0.85352
 1177  H   0.84838
 1178  H   0.85414
 1179  C   1.08490   0.79143   0.79863   0.75849
 1180  O   1.88077   1.63457   1.59916   1.53862
 1181  N   1.54421   1.36699   1.43873   1.15966
 1182  H   0.64692
 1183  C   1.06758   0.91279   0.92705   1.05076
 1184  H   0.82697
 1185  C   1.05947   1.16433   1.08571   1.15476
 1186  H   0.82227
 1187  H   0.83331
 1188  H   0.82774
 1189  C   1.08842   0.78738   0.78394   0.74656
 1190  O   1.87253   1.84229   1.36181   1.59731
 1191  N   1.54672   1.17222   1.31976   1.49749
 1192  H   0.67273
 1193  C   1.07522   0.87644   1.08041   0.93362
 1194  H   0.81231
 1195  C   1.07971   1.14434   1.18026   1.01058
 1196  H   0.81004
 1197  H   0.83099
 1198  C   1.07296   0.74213   0.71562   0.70991
 1199  O   1.88577   1.82978   1.48317   1.53714
 1200  O   1.87537   1.61599   1.55181   1.81107
 1201  C   1.09111   0.81712   0.79396   0.74891
 1202  O   1.88737   1.28538   1.80504   1.56575
 1203  N   1.56731   1.29455   1.16872   1.54480
 1204  H   0.67999
 1205  C   1.07958   1.02037   0.91857   0.95314
 1206  H   0.83901
 1207  C   1.05565   1.07716   1.20250   0.96293
 1208  H   0.81400
 1209  H   0.81991
 1210  C   1.07481   0.97422   0.97730   0.96986
 1211  C   1.08998   1.04128   1.04141   1.01454
 1212  H   0.83963
 1213  C   1.08860   0.98541   1.06171   1.01070
 1214  H   0.84244
 1215  C   1.08740   1.05975   0.99176   1.03257
 1216  H   0.84789
 1217  C   1.08950   1.03698   1.03612   0.98872
 1218  H   0.83155
 1219  C   1.08733   0.98642   1.06437   1.02368
 1220  H   0.83829
 1221  C   1.08960   0.80291   0.77339   0.76325
 1222  O   1.88542   1.44302   1.55866   1.71359
 1223  N   1.53966   1.41495   1.43838   1.13698
 1224  H   0.68650
 1225  C   1.06851   0.98818   1.06850   0.98091
 1226  H   0.81376
 1227  H   0.80590
 1228  C   1.07949   0.82824   0.77873   0.70477
 1229  O   1.87687   1.84093   1.32488   1.61181
 1230  N   1.55804   1.29946   1.23419   1.44743
 1231  H   0.67211
 1232  C   1.07766   0.89797   1.03320   0.96873
 1233  H   0.83291
 1234  C   1.06798   1.11375   0.95002   1.17438
 1235  H   0.83988
 1236  H   0.82927
 1237  C   1.05176   1.03186   0.96114   1.00974
 1238  H   0.86291
 1239  C   1.05603   1.16787   1.06691   1.16549
 1240  H   0.85878
 1241  H   0.84240
 1242  H   0.85468
 1243  C   1.05560   1.17088   1.18822   1.04661
 1244  H   0.84204
 1245  H   0.84166
 1246  H   0.85805
 1247  C   1.09546   0.85797   0.76591   0.72621
 1248  O   1.88121   1.32490   1.78574   1.59386
 1249  N   1.58224   1.28194   1.23338   1.52136
 1250  H   0.66053
 1251  C   1.06845   0.96444   0.99732   0.95416
 1252  H   0.83680
 1253  C   1.05864   1.13969   1.09739   1.17442
 1254  H   0.84386
 1255  H   0.81012
 1256  H   0.81034
 1257  C   1.07586   0.83424   0.75235   0.78157
 1258  O   1.88393   1.49945   1.59951   1.64945
 1259  N   1.54297   1.31138   1.51225   1.14409
 1260  H   0.67616
 1261  C   1.06251   0.92417   1.14576   1.10587
 1262  H   0.82632
 1263  H   0.82954
 1264  H   0.83901
 1265  H   0.84111
 1266  C   1.10476   0.72479   0.79424   0.87720
 1267  O   1.88385   1.53295   1.36180   1.88320
 1268  N   1.54283   1.48755   1.35136   1.14850
 1269  H   0.67722
 1270  C   1.07288   1.11774   0.96772   0.82264
 1271  H   0.80336
 1272  C   1.05754   1.08946   1.02703   1.14973
 1273  H   0.83835
 1274  H   0.82146
 1275  C   1.06414   0.97786   0.94946   0.96812
 1276  C   1.08273   1.02016   0.99421   1.05882
 1277  H   0.84005
 1278  C   1.08229   1.04744   1.02800   0.99850
 1279  H   0.84508
 1280  C   1.08125   1.00704   1.05594   1.02569
 1281  H   0.84974
 1282  C   1.08066   1.02415   1.00313   1.05467
 1283  H   0.85445
 1284  C   1.08301   1.05870   1.02593   0.99527
 1285  H   0.84020
 1286  C   1.08031   0.76631   0.78596   0.79870
 1287  O   1.88386   1.53915   1.68019   1.53361
 1288  N   1.53646   1.17576   1.34785   1.43183
 1289  H   0.67321
 1290  C   1.05812   1.14243   0.97661   0.99798
 1291  H   0.81420
 1292  H   0.78763
 1293  C   1.07328   0.78348   0.75129   0.80154
 1294  O   1.87391   1.55183   1.39514   1.84389
 1295  N   1.53532   1.40734   1.37314   1.17668
 1296  H   0.64921
 1297  C   1.07463   1.00332   1.20039   0.87795
 1298  H   0.80959
 1299  H   0.79369
 1300  C   1.08151   0.77439   0.74537   0.80728
 1301  O   1.88286   1.52192   1.53280   1.73159
 1302  N   1.56503   1.44460   1.16649   1.26713
 1303  C   1.07048   1.06947   0.86836   1.05599
 1304  H   0.83690
 1305  H   0.83931
 1306  C   1.05723   1.04694   1.13809   1.05937
 1307  H   0.84601
 1308  H   0.80615
 1309  C   1.06100   1.08188   0.98341   1.17216
 1310  H   0.83500
 1311  H   0.81968
 1312  C   1.07345   1.05239   1.00093   0.86782
 1313  H   0.81331
 1314  C   1.08826   0.76350   0.76814   0.82858
 1315  O   1.88394   1.42710   1.43543   1.88338
 1316  N   1.54313   1.40351   1.48390   1.11753
 1317  H   0.64357
 1318  C   1.08218   1.04955   1.11418   0.89129
 1319  H   0.80080
 1320  H   0.78748
 1321  C   1.08834   0.82552   0.73023   0.77831
 1322  O   1.88489   1.70338   1.72972   1.32974
 1323  N   1.55109   1.23220   1.41109   1.34483
 1324  H   0.68805
 1325  C   1.07569   0.86021   1.06402   0.97857
 1326  H   0.82213
 1327  C   1.05962   1.16894   1.07555   0.97643
 1328  H   0.83467
 1329  H   0.83911
 1330  C   1.05817   1.13845   1.07478   1.02399
 1331  H   0.82452
 1332  H   0.87170
 1333  C   1.06376   1.08744   1.10001   0.78143
 1334  H   0.85063
 1335  H   0.81925
 1336  N   1.53282   1.62697   1.28988   1.09340
 1337  H   0.64878
 1338  C   0.97601   0.83628   0.80286   0.79452
 1339  N   1.50147   1.56332   1.25854   1.24811
 1340  H   0.67472
 1341  H   0.62637
 1342  N   1.50407   1.55703   1.35355   1.14114
 1343  H   0.64452
 1344  H   0.63721
 1345  C   1.08261   0.75731   0.77369   0.84383
 1346  O   1.88767   1.48038   1.64690   1.56780
 1347  N   1.54266   1.54524   1.19718   1.23962
 1348  H   0.67316
 1349  C   1.08988   1.00100   1.00995   0.92006
 1350  H   0.80170
 1351  C   1.08582   0.92933   0.92557   0.87799
 1352  H   0.85230
 1353  C   1.05847   1.09911   1.12775   1.20459
 1354  H   0.82468
 1355  H   0.83286
 1356  H   0.83178
 1357  O   1.84272   1.58486   1.64147   1.56926
 1358  H   0.62372
 1359  C   1.07896   0.81162   0.79088   0.76113
 1360  O   1.88697   1.53976   1.79318   1.37272
 1361  N   1.55263   1.32702   1.29562   1.37664
 1362  H   0.65213
 1363  C   1.07401   0.98867   0.92726   0.99342
 1364  H   0.81731
 1365  C   1.05778   1.09519   1.06815   1.08689
 1366  H   0.84152
 1367  H   0.82745
 1368  C   1.06142   0.97150   0.97515   1.05801
 1369  C   1.08294   0.97293   1.08008   0.99418
 1370  H   0.84421
 1371  C   1.08353   1.08292   0.99515   1.00846
 1372  H   0.80502
 1373  C   1.06606   0.82568   0.89611   0.91566
 1374  O   1.84130   1.47001   1.54110   1.69635
 1375  H   0.63967
 1376  C   1.07376   0.99021   1.09189   1.06959
 1377  H   0.84686
 1378  C   1.08139   1.06402   0.99908   0.99824
 1379  H   0.85847
 1380  C   1.08201   0.77621   0.73393   0.82098
 1381  O   1.88474   1.39061   1.55621   1.82940
 1382  N   1.55038   1.20072   1.60165   1.14808
 1383  H   0.66087
 1384  C   1.08716   1.11681   1.03471   0.83752
 1385  H   0.82123
 1386  C   1.08255   0.83232   0.89088   1.00025
 1387  H   0.86837
 1388  C   1.05717   1.09849   1.14096   1.18967
 1389  H   0.83095
 1390  H   0.84553
 1391  H   0.84159
 1392  O   1.84702   1.32395   1.76618   1.66689
 1393  H   0.61649
 1394  C   1.08216   0.82822   0.76385   0.79213
 1395  O   1.88732   1.29201   1.70645   1.67739
 1396  N   1.54293   1.22799   1.27089   1.47586
 1397  H   0.64929
 1398  C   1.07059   0.98360   1.04055   1.07622
 1399  H   0.84396
 1400  H   0.80863
 1401  C   1.07042   0.85099   0.72008   0.75160
 1402  O   1.88496   1.70098   1.45761   1.55965
 1403  N   1.55352   1.14723   1.51367   1.33251
 1404  H   0.67990
 1405  C   1.07058   0.82937   0.98722   1.12848
 1406  H   0.81461
 1407  C   1.05337   1.16420   0.99032   1.05270
 1408  H   0.83911
 1409  H   0.83661
 1410  C   1.05982   1.20563   1.01207   1.13829
 1411  H   0.84263
 1412  H   0.82590
 1413  C   1.06691   0.72356   0.72078   0.72815
 1414  O   1.88772   1.47331   1.82309   1.63597
 1415  O   1.88502   1.51743   1.58619   1.81395
 1416  C   1.08676   0.77116   0.86243   0.75464
 1417  O   1.88733   1.64846   1.65288   1.40924
 1418  N   1.54587   1.31029   1.19202   1.47857
 1419  H   0.65332
 1420  C   1.07214   1.06276   0.88110   1.00754
 1421  H   0.84349
 1422  C   1.05449   1.01870   1.03236   0.97098
 1423  H   0.83636
 1424  C   1.05591   1.17745   1.04863   1.19327
 1425  H   0.84531
 1426  H   0.83580
 1427  H   0.83801
 1428  C   1.05455   1.18134   1.16760   1.06138
 1429  H   0.84082
 1430  H   0.83978
 1431  H   0.85189
 1432  C   1.07573   0.77108   0.73158   0.84223
 1433  O   1.88367   1.36386   1.63734   1.76954
 1434  N   1.53828   1.27318   1.47280   1.21104
 1435  H   0.66886
 1436  C   1.07710   1.00727   1.05474   0.86819
 1437  H   0.82268
 1438  C   1.06067   1.02656   1.01606   0.97689
 1439  H   0.84036
 1440  C   1.05419   1.18425   1.09821   1.12139
 1441  H   0.84088
 1442  H   0.84061
 1443  H   0.85075
 1444  C   1.05734   1.18973   1.16644   1.05239
 1445  H   0.84647
 1446  H   0.83524
 1447  H   0.83899
 1448  C   1.08155   0.80666   0.78642   0.75127
 1449  O   1.88319   1.81145   1.47310   1.46008
 1450  N   1.53604   1.23697   1.43139   1.31666
 1451  H   0.66484
 1452  C   1.07957   0.90430   0.96830   1.14837
 1453  H   0.80518
 1454  C   1.07972   0.93536   0.82459   0.98295
 1455  H   0.86691
 1456  C   1.05745   1.09502   1.13580   1.19623
 1457  H   0.82484
 1458  H   0.82205
 1459  H   0.84131
 1460  O   1.84758   1.47767   1.49393   1.78187
 1461  H   0.64882
 1462  C   1.07069   0.75373   0.82642   0.79814
 1463  O   1.88056   1.50709   1.88258   1.36426
 1464  N   1.53716   1.55025   1.12176   1.29445
 1465  H   0.65707
 1466  C   1.05410   1.16778   0.87315   1.13585
 1467  H   0.83020
 1468  H   0.83672
 1469  H   0.85125
 1470  H   0.82729
 1471  C   1.10850   0.72194   0.77564   0.90303
 1472  O   1.87918   1.50019   1.39718   1.89103
 1473  N   1.54808   1.50774   1.35867   1.13690
 1474  H   0.67064
 1475  C   1.07821   1.08327   1.04084   0.80198
 1476  H   0.80367
 1477  C   1.05901   1.13416   0.99953   1.10164
 1478  H   0.81855
 1479  H   0.82211
 1480  C   1.06594   0.97595   0.99296   1.00550
 1481  C   1.08233   0.99070   1.02467   1.00447
 1482  H   0.83754
 1483  C   1.07638   1.10517   1.04976   1.06616
 1484  H   0.82031
 1485  C   1.07257   0.88643   0.88191   0.87958
 1486  O   1.83869   1.35507   1.61294   1.73272
 1487  H   0.61905
 1488  C   1.07843   0.98866   1.10005   1.09713
 1489  H   0.82138
 1490  C   1.08805   1.07822   0.97903   0.96919
 1491  H   0.83566
 1492  C   1.08082   0.79993   0.76890   0.79201
 1493  O   1.88631   1.81381   1.69953   1.28026
 1494  N   1.53471   1.25586   1.50888   1.18461
 1495  H   0.67097
 1496  C   1.06143   0.92030   1.08959   1.16682
 1497  H   0.83430
 1498  H   0.82969
 1499  H   0.83844
 1500  H   0.82482
 1501  C   1.10804   0.78633   0.88374   0.71616
 1502  O   1.88011   1.43051   1.87064   1.50911
 1503  N   1.55068   1.37512   1.18532   1.44525
 1504  H   0.64439
 1505  C   1.07866   0.96574   0.86326   1.12907
 1506  H   0.81498
 1507  C   1.05975   0.97988   0.99664   1.07642
 1508  H   0.84634
 1509  C   1.05207   1.15826   1.06266   1.17611
 1510  H   0.84449
 1511  H   0.84457
 1512  H   0.84174
 1513  C   1.04784   0.99991   1.12970   1.08494
 1514  H   0.86684
 1515  H   0.85348
 1516  C   1.04905   1.11604   1.12953   1.14948
 1517  H   0.85880
 1518  H   0.85740
 1519  H   0.84104
 1520  C   1.07242   0.85960   0.73797   0.75026
 1521  O   1.87627   1.57604   1.55603   1.67380
 1522  N   1.54217   1.18498   1.41741   1.37462
 1523  H   0.66201
 1524  C   1.07135   0.87895   1.16328   1.10827
 1525  H   0.84317
 1526  H   0.83221
 1527  H   0.83419
 1528  H   0.82779
 1529  C   1.10750   0.84813   0.73342   0.82110
 1530  O   1.88535   1.81619   1.62627   1.36660
 1531  N   1.53778   1.25351   1.40299   1.30522
 1532  H   0.64802
 1533  C   1.05919   0.89148   1.04101   1.02461
 1534  H   0.81868
 1535  C   1.06066   1.03218   1.11508   1.11413
 1536  H   0.82493
 1537  H   0.84740
 1538  C   1.04450   0.99036   0.96289   1.06046
 1539  H   0.87997
 1540  C   1.05448   1.16226   1.06833   1.18068
 1541  H   0.83905
 1542  H   0.84808
 1543  H   0.85357
 1544  C   1.05254   1.12335   1.17295   1.10757
 1545  H   0.85716
 1546  H   0.84699
 1547  H   0.84162
 1548  C   1.07856   0.72929   0.86448   0.77459
 1549  O   1.88176   1.57680   1.45164   1.73561
 1550  N   1.54018   1.57217   1.21298   1.19391
 1551  H   0.66023
 1552  C   1.07173   1.02093   0.93488   0.96069
 1553  H   0.81149
 1554  C   1.05666   1.17056   1.07918   0.99267
 1555  H   0.82409
 1556  H   0.82742
 1557  C   1.05681   1.13007   1.08820   1.03628
 1558  H   0.85354
 1559  H   0.82351
 1560  C   1.06365   1.15813   0.94508   0.90225
 1561  H   0.81564
 1562  H   0.83637
 1563  N   1.52412   1.16127   1.42467   1.39830
 1564  H   0.63939
 1565  C   0.99155   0.79146   0.81258   0.81868
 1566  N   1.51737   1.11692   1.46798   1.48669
 1567  H   0.65518
 1568  H   0.63902
 1569  N   1.50862   1.25117   1.39996   1.41130
 1570  H   0.64169
 1571  H   0.64058
 1572  C   1.08202   0.87269   0.77282   0.74627
 1573  O   1.88789   1.60656   1.59749   1.52461
 1574  N   1.53978   1.17454   1.27171   1.51690
 1575  H   0.65754
 1576  C   1.07429   0.85709   1.08619   1.03791
 1577  H   0.82147
 1578  C   1.06140   1.16379   1.09821   0.98440
 1579  H   0.84236
 1580  H   0.83873
 1581  C   1.04757   1.08153   0.95974   0.94840
 1582  H   0.86930
 1583  C   1.05594   1.17130   1.16317   1.07765
 1584  H   0.85401
 1585  H   0.86054
 1586  H   0.84727
 1587  C   1.05675   1.15731   1.09309   1.15830
 1588  H   0.85019
 1589  H   0.86033
 1590  H   0.84730
 1591  C   1.08291   0.71465   0.76141   0.70263
 1592  O   1.88395   1.46776   1.86948   1.62315
 1593  O   1.88760   1.54738   1.59420   1.80332

 **********************
 *                    *
 * JOB ENDED NORMALLY *
 *                    *
 **********************



 TOTAL JOB TIME:          2941.38 SECONDS

 == MOPAC DONE ==
