 *******************************************************************************
 **                                                                           **
 **                              MOPAC v23.2.2                                **
 **                                                                           **
 *******************************************************************************
 **          Digital Object Identifier (DOI): 10.5281/zenodo.6511958          **
 **    Visit the DOI location for information on how to cite this program.    **
 *******************************************************************************

                              PM7 CALCULATION RESULTS

 *******************************************************************************
 *  CALCULATION DONE: (MAX THREADS = 24)             Thu Jan 22 21:16:41 2026  *
 *  PM7        - The PM7 Hamiltonian to be used
 *
 *
 *
 *                 CHARGE ON SYSTEM = +2
 *
 *
 *
 *  EPS=78.4   - USE ANDREAS KLAMT'S COSMO IMPLICIT SOLVATION MODEL
 *  XYZ        - CARTESIAN COORDINATE SYSTEM TO BE USED
 *  1SCF       - DO 1 SCF AND THEN STOP 
 *  T=         - A TIME OF 172800.0 SECONDS REQUESTED
 *  DUMP=N     - RESTART FILE WRITTEN EVERY 7200.0 SECONDS REQUESTED
 *******************************************************************************
PM7 1SCF XYZ CHARGE=2 EPS=78.4


   ATOM   CHEMICAL          X               Y               Z
  NUMBER   SYMBOL      (ANGSTROMS)     (ANGSTROMS)     (ANGSTROMS)

     1       H         71.69100000  *  165.23700000  * -45.36000000  *
     2       C         70.72700000  *  165.64400000  * -45.02500000  *
     3       O         70.67100000  *  166.69300000  * -44.40000000  *
     4       N         69.64800000  *  164.94600000  * -45.35400000  *
     5       H         69.74300000  *  164.08600000  * -45.86500000  *
     6       C         68.31800000  *  165.37700000  * -44.95100000  *
     7       H         68.30400000  *  166.44500000  * -44.75000000  *
     8       C         67.27900000  *  165.08100000  * -46.05800000  *
     9       H         67.27200000  *  164.02200000  * -46.29800000  *
    10       C         65.89200000  *  165.46600000  * -45.59200000  *
    11       H         65.46400000  *  166.22900000  * -46.24500000  *
    12       H         65.23700000  *  164.60600000  * -45.62700000  *
    13       H         65.87600000  *  165.89500000  * -44.58400000  *
    14       C         67.63700000  *  165.85600000  * -47.31700000  *
    15       H         68.59400000  *  165.52900000  * -47.70800000  *
    16       H         66.87900000  *  165.66900000  * -48.07700000  *
    17       H         67.68800000  *  166.92100000  * -47.10100000  *
    18       C         67.91500000  *  164.66400000  * -43.65700000  *
    19       O         67.55300000  *  165.30600000  * -42.67600000  *
    20       N         67.98400000  *  163.33800000  * -43.65800000  *
    21       H         68.28400000  *  162.85200000  * -44.48600000  *
    22       C         67.62300000  *  162.54400000  * -42.48700000  *
    23       H         67.90600000  *  163.07600000  * -41.58100000  *
    24       C         66.12800000  *  162.23500000  * -42.45900000  *
    25       H         65.92600000  *  161.47400000  * -43.20900000  *
    26       H         65.88500000  *  161.80700000  * -41.48800000  *
    27       C         65.21300000  *  163.39800000  * -42.74000000  *
    28       H         65.33100000  *  164.15700000  * -41.96400000  *
    29       H         65.45900000  *  163.81400000  * -43.69700000  *
    30       C         63.76600000  *  162.97200000  * -42.82400000  *
    31       O         63.44700000  *  162.11400000  * -43.67900000  *
    32       O         62.94800000  *  163.49400000  * -42.03400000  *
    33       C         68.34700000  *  161.22200000  * -42.57700000  *
    34       O         68.73000000  *  160.78800000  * -43.66100000  *
    35       N         68.52400000  *  160.57500000  * -41.43500000  *
    36       H         68.03000000  *  160.89100000  * -40.60600000  *
    37       C         69.17300000  *  159.28200000  * -41.42100000  *
    38       H         69.95100000  *  159.22100000  * -42.17800000  *
    39       C         69.75600000  *  159.01000000  * -40.03200000  *
    40       H         70.21900000  *  159.94300000  * -39.71800000  *
    41       H         68.96300000  *  158.79100000  * -39.31600000  *
    42       C         70.79800000  *  157.89600000  * -39.98300000  *
    43       H         70.31100000  *  156.94100000  * -40.17400000  *
    44       H         71.53800000  *  158.07300000  * -40.76900000  *
    45       C         71.50100000  *  157.83200000  * -38.61800000  *
    46       H         70.74900000  *  157.59000000  * -37.86000000  *
    47       H         72.23100000  *  157.01800000  * -38.63800000  *
    48       C         72.18600000  *  159.16200000  * -38.26900000  *
    49       H         72.83200000  *  159.42500000  * -39.10900000  *
    50       H         71.41200000  *  159.93100000  * -38.15600000  *
    51       N         73.00000000  *  159.10500000  * -37.02500000  *
    52       H         73.70000000  *  158.37000000  * -37.07400000  *
    53       H         73.43800000  *  159.98800000  * -36.79300000  *
    54       H         72.39100000  *  158.85400000  * -36.25100000  *
    55       C         68.06200000  *  158.28700000  * -41.74800000  *
    56       O         67.16300000  *  158.08100000  * -40.94600000  *
    57       N         68.04900000  *  157.71400000  * -42.95600000  *
    58       H         68.85600000  *  157.85100000  * -43.54400000  *
    59       C         67.02300000  *  156.74000000  * -43.38900000  *
    60       H         66.05000000  *  157.23500000  * -43.38600000  *
    61       C         67.29500000  *  156.22800000  * -44.82500000  *
    62       H         68.36800000  *  156.09300000  * -44.94900000  *
    63       C         66.61100000  *  154.88500000  * -45.12400000  *
    64       H         65.54100000  *  154.95700000  * -44.92300000  *
    65       H         66.75700000  *  154.62100000  * -46.16300000  *
    66       H         67.04300000  *  154.07800000  * -44.53200000  *
    67       C         66.80500000  *  157.27800000  * -45.83600000  *
    68       H         65.71400000  *  157.28800000  * -45.85600000  *
    69       H         67.13600000  *  158.24800000  * -45.48000000  *
    70       C         67.33400000  *  157.07800000  * -47.26400000  *
    71       H         66.92000000  *  156.17700000  * -47.70900000  *
    72       H         67.04300000  *  157.92400000  * -47.88300000  *
    73       H         68.41800000  *  157.00900000  * -47.25700000  *
    74       C         66.91300000  *  155.57300000  * -42.40700000  *
    75       O         65.81600000  *  155.22500000  * -41.96600000  *
    76       N         68.04900000  *  154.94600000  * -42.10700000  *
    77       H         68.92200000  *  155.30000000  * -42.48100000  *
    78       C         68.07300000  *  153.67300000  * -41.40600000  *
    79       H         67.45300000  *  153.74700000  * -40.51000000  *
    80       H         67.65700000  *  152.89800000  * -42.05000000  *
    81       C         69.47300000  *  153.24800000  * -40.99700000  *
    82       O         70.47600000  *  153.57200000  * -41.63900000  *
    83       N         69.51600000  *  152.49000000  * -39.91100000  *
    84       H         68.64200000  *  152.26200000  * -39.45900000  *
    85       C         70.72400000  *  151.87600000  * -39.38200000  *
    86       H         71.56700000  *  152.54400000  * -39.56100000  *
    87       C         70.55800000  *  151.70100000  * -37.86400000  *
    88       H         69.70500000  *  151.05300000  * -37.66100000  *
    89       H         71.45900000  *  151.24000000  * -37.48100000  *
    90       C         70.37700000  *  153.04400000  * -37.13400000  *
    91       H         71.22500000  *  153.68900000  * -37.38100000  *
    92       H         69.47000000  *  153.53800000  * -37.49200000  *
    93       C         70.27400000  *  152.87600000  * -35.61000000  *
    94       O         69.40700000  *  152.11000000  * -35.13000000  *
    95       O         71.03100000  *  153.55200000  * -34.87400000  *
    96       C         70.97700000  *  150.55900000  * -40.14000000  *
    97       O         70.22400000  *  149.59200000  * -39.99600000  *
    98       N         71.95100000  *  150.56700000  * -41.05700000  *
    99       H         72.58100000  *  151.35900000  * -41.09500000  *
   100       C         72.04900000  *  149.59100000  * -42.14800000  *
   101       H         71.04300000  *  149.33800000  * -42.48500000  *
   102       H         72.56300000  *  150.07100000  * -42.98100000  *
   103       C         72.78400000  *  148.28400000  * -41.82500000  *
   104       O         73.15600000  *  147.99800000  * -40.68900000  *
   105       N         73.01900000  *  147.48200000  * -42.86800000  *
   106       H         72.66600000  *  147.75600000  * -43.77100000  *
   107       C         73.78800000  *  146.21800000  * -42.82000000  *
   108       H         73.51600000  *  145.67100000  * -41.91700000  *
   109       C         73.47100000  *  145.32600000  * -44.03200000  *
   110       H         74.19500000  *  144.51200000  * -44.09400000  *
   111       C         72.07800000  *  144.72300000  * -43.90800000  *
   112       H         71.32100000  *  145.50700000  * -43.89100000  *
   113       H         71.90100000  *  144.05600000  * -44.75200000  *
   114       H         72.03700000  *  144.13800000  * -42.99000000  *
   115       O         73.53700000  *  146.09600000  * -45.20700000  *
   116       H         73.09400000  *  145.59000000  * -45.92800000  *
   117       C         75.30000000  *  146.41100000  * -42.77900000  *
   118       O         75.96600000  *  145.60900000  * -42.13800000  *
   119       N         75.82800000  *  147.45900000  * -43.42700000  *
   120       H         75.19300000  *  148.00300000  * -43.98900000  *
   121       C         77.27100000  *  147.71500000  * -43.59700000  *
   122       H         77.83000000  *  147.11200000  * -42.88100000  *
   123       C         77.69700000  *  147.28600000  * -45.01600000  *
   124       H         77.23200000  *  147.95800000  * -45.73800000  *
   125       H         78.77800000  *  147.40000000  * -45.11400000  *
   126       C         77.35800000  *  145.85400000  * -45.37600000  *
   127       C         77.81300000  *  144.81100000  * -44.55100000  *
   128       H         78.40700000  *  145.02800000  * -43.67200000  *
   129       C         77.47300000  *  143.48400000  * -44.84800000  *
   130       H         77.80100000  *  142.69600000  * -44.19200000  *
   131       C         76.70700000  *  143.18400000  * -45.99300000  *
   132       O         76.44600000  *  141.88900000  * -46.30300000  *
   133       H         77.09800000  *  141.32200000  * -45.86100000  *
   134       C         76.24600000  *  144.22900000  * -46.82100000  *
   135       H         75.63800000  *  144.00800000  * -47.68200000  *
   136       C         76.57600000  *  145.56300000  * -46.51200000  *
   137       H         76.21800000  *  146.36300000  * -47.14500000  *
   138       C         77.68400000  *  149.17500000  * -43.33600000  *
   139       O         78.78000000  *  149.58400000  * -43.71300000  *
   140       N         76.81500000  *  149.97300000  * -42.71000000  *
   141       H         75.94500000  *  149.58200000  * -42.37900000  *
   142       C         77.03100000  *  151.39800000  * -42.45700000  *
   143       H         77.61500000  *  151.52400000  * -41.54700000  *
   144       H         77.59900000  *  151.82000000  * -43.27500000  *
   145       C         75.71600000  *  152.16600000  * -42.30400000  *
   146       O         74.67100000  *  151.55900000  * -42.05400000  *
   147       N         75.75500000  *  153.49500000  * -42.44900000  *
   148       H         76.58800000  *  153.89400000  * -42.85900000  *
   149       C         74.59200000  *  154.32600000  * -42.21200000  *
   150       H         73.82600000  *  153.78000000  * -41.65800000  *
   151       C         74.95900000  *  155.54800000  * -41.37000000  *
   152       H         75.70700000  *  156.13900000  * -41.89300000  *
   153       C         73.73100000  *  156.40900000  * -41.13300000  *
   154       H         72.94300000  *  155.80300000  * -40.68200000  *
   155       H         73.98600000  *  157.21200000  * -40.45000000  *
   156       H         73.36800000  *  156.84900000  * -42.06500000  *
   157       C         75.54500000  *  155.09600000  * -40.05300000  *
   158       H         76.46000000  *  154.52800000  * -40.19800000  *
   159       H         75.77700000  *  155.95300000  * -39.42300000  *
   160       H         74.80500000  *  154.48400000  * -39.53200000  *
   161       C         74.01900000  *  154.79200000  * -43.53700000  *
   162       O         74.76100000  *  155.18400000  * -44.43700000  *
   163       N         72.69800000  *  154.64400000  * -43.68100000  *
   164       H         72.16700000  *  154.29100000  * -42.89200000  *
   165       C         71.91900000  *  155.09500000  * -44.84200000  *
   166       H         72.58000000  *  155.15900000  * -45.70300000  *
   167       C         70.77700000  *  154.11200000  * -45.19000000  *
   168       H         69.95200000  *  154.25200000  * -44.49100000  *
   169       C         70.26300000  *  154.39000000  * -46.60800000  *
   170       H         71.04900000  *  154.19900000  * -47.33900000  *
   171       H         69.41100000  *  153.74500000  * -46.82400000  *
   172       H         69.94700000  *  155.42600000  * -46.70000000  *
   173       C         71.19500000  *  152.63800000  * -45.11300000  *
   174       H         72.08300000  *  152.47200000  * -45.71500000  *
   175       H         71.40000000  *  152.36100000  * -44.07800000  *
   176       H         70.38300000  *  152.00500000  * -45.47500000  *
   177       C         71.34400000  *  156.48000000  * -44.54800000  *
   178       O         70.60400000  *  156.62500000  * -43.57200000  *
   179       N         71.62500000  *  157.49000000  * -45.37400000  *
   180       H         72.23900000  *  157.32200000  * -46.16900000  *
   181       C         71.01800000  *  158.79600000  * -45.21900000  *
   182       H         70.37900000  *  158.84300000  * -44.33800000  *
   183       C         72.10000000  *  159.86100000  * -45.06900000  *
   184       H         72.79900000  *  159.78100000  * -45.90500000  *
   185       H         71.63400000  *  160.84400000  * -45.14300000  *
   186       C         72.87100000  *  159.84300000  * -43.76800000  *
   187       C         72.34700000  *  160.43100000  * -42.61900000  *
   188       H         71.37700000  *  160.90600000  * -42.66800000  *
   189       C         73.06400000  *  160.45200000  * -41.42500000  *
   190       H         72.63300000  *  160.94600000  * -40.56800000  *
   191       C         74.33000000  *  159.87400000  * -41.37100000  *
   192       O         75.04700000  *  159.90100000  * -40.18700000  *
   193       H         74.69700000  *  160.54100000  * -39.56800000  *
   194       C         74.87500000  *  159.27800000  * -42.50300000  *
   195       H         75.78500000  *  158.71900000  * -42.41900000  *
   196       C         74.14000000  *  159.26700000  * -43.69600000  *
   197       H         74.51800000  *  158.73300000  * -44.56500000  *
   198       C         70.16700000  *  159.17400000  * -46.42900000  *
   199       O         70.41800000  *  158.72400000  * -47.55600000  *
   200       N         69.03000000  *  159.83500000  * -46.21300000  *
   201       H         68.84300000  *  160.14300000  * -45.26500000  *
   202       C         68.29500000  *  160.51200000  * -47.28200000  *
   203       H         68.28600000  *  159.91000000  * -48.19300000  *
   204       C         66.85000000  *  160.83800000  * -46.85100000  *
   205       H         66.33100000  *  159.91900000  * -46.59300000  *
   206       H         66.86700000  *  161.47600000  * -45.96500000  *
   207       C         66.04200000  *  161.52700000  * -47.96300000  *
   208       H         66.51900000  *  162.46800000  * -48.23900000  *
   209       H         66.01300000  *  160.87600000  * -48.83800000  *
   210       C         64.60800000  *  161.81000000  * -47.48600000  *
   211       H         64.14500000  *  160.87700000  * -47.15900000  *
   212       H         64.64500000  *  162.49700000  * -46.64000000  *
   213       C         63.77100000  *  162.42300000  * -48.61700000  *
   214       H         64.30000000  *  163.29800000  * -49.00900000  *
   215       H         63.69000000  *  161.68700000  * -49.42400000  *
   216       N         62.41600000  *  162.82100000  * -48.15000000  *
   217       H         62.46700000  *  163.52300000  * -47.42500000  *
   218       H         61.86900000  *  163.21400000  * -48.90400000  *
   219       H         61.90400000  *  162.03400000  * -47.77800000  *
   220       C         69.10100000  *  161.76700000  * -47.51000000  *
   221       O         69.33100000  *  162.50100000  * -46.55200000  *
   222       N         69.55500000  *  162.00600000  * -48.72500000  *
   223       H         69.34400000  *  161.34200000  * -49.46700000  *
   224       C         70.34900000  *  163.18200000  * -49.01700000  *
   225       H         70.22500000  *  163.93500000  * -48.24000000  *
   226       C         71.81400000  *  162.79200000  * -49.07000000  *
   227       H         71.97800000  *  162.06700000  * -49.86400000  *
   228       H         72.42900000  *  163.67700000  * -49.23900000  *
   229       H         72.10500000  *  162.33200000  * -48.12600000  *
   230       C         69.94400000  *  163.83800000  * -50.32200000  *
   231       O         69.22100000  *  163.25100000  * -51.12800000  *
   232       N         70.40700000  *  165.06400000  * -50.52400000  *
   233       H         70.93200000  *  165.53000000  * -49.79600000  *
   234       C         70.10800000  *  165.77900000  * -51.74600000  *
   235       H         69.54100000  *  165.15900000  * -52.44400000  *
   236       H         69.52200000  *  166.69100000  * -51.53000000  *
   237       H         71.05900000  *  166.04700000  * -52.23900000  *
   238       H         68.08600000  *  164.80700000  * -56.55000000  *
   239       C         68.21200000  *  164.39600000  * -55.53600000  *
   240       O         69.28600000  *  164.50800000  * -54.94200000  *
   241       N         67.13500000  *  163.82300000  * -55.01100000  *
   242       H         66.34000000  *  163.66800000  * -55.61500000  *
   243       C         67.13600000  *  163.21200000  * -53.68800000  *
   244       H         67.86300000  *  163.70700000  * -53.05000000  *
   245       C         65.75500000  *  163.32300000  * -53.02900000  *
   246       H         64.97700000  *  163.06900000  * -53.75000000  *
   247       C         65.64800000  *  162.36600000  * -51.85200000  *
   248       H         66.47200000  *  162.51800000  * -51.15200000  *
   249       H         64.69700000  *  162.53800000  * -51.34700000  *
   250       H         65.65200000  *  161.33900000  * -52.20000000  *
   251       C         65.54000000  *  164.75000000  * -52.56600000  *
   252       H         65.62600000  *  165.42400000  * -53.41600000  *
   253       H         64.53500000  *  164.85100000  * -52.15900000  *
   254       H         66.28400000  *  165.00300000  * -51.81000000  *
   255       C         67.52600000  *  161.76000000  * -53.84700000  *
   256       O         66.97900000  *  161.02800000  * -54.68200000  *
   257       N         68.49600000  *  161.34900000  * -53.04800000  *
   258       H         68.91100000  *  161.99700000  * -52.39100000  *
   259       C         69.01100000  *  159.99200000  * -53.10200000  *
   260       H         68.34600000  *  159.34100000  * -53.67900000  *
   261       C         70.37400000  *  159.97400000  * -53.81600000  *
   262       H         70.77500000  *  158.96500000  * -53.87500000  *
   263       C         70.21400000  *  160.50700000  * -55.21300000  *
   264       H         69.95700000  *  161.56600000  * -55.19000000  *
   265       H         71.15100000  *  160.39100000  * -55.75600000  *
   266       H         69.44200000  *  159.95000000  * -55.73600000  *
   267       C         71.37900000  *  160.85000000  * -53.05700000  *
   268       H         71.56500000  *  160.44500000  * -52.06400000  *
   269       H         72.31500000  *  160.84900000  * -53.61300000  *
   270       H         71.03600000  *  161.88400000  * -52.98400000  *
   271       C         69.19200000  *  159.37200000  * -51.72900000  *
   272       O         69.02000000  *  160.03600000  * -50.68600000  *
   273       N         69.37900000  *  158.05900000  * -51.70200000  *
   274       H         69.45500000  *  157.56300000  * -52.58600000  *
   275       C         69.76500000  *  157.33400000  * -50.50900000  *
   276       H         69.49000000  *  157.90300000  * -49.62300000  *
   277       C         69.01600000  *  156.01300000  * -50.45200000  *
   278       H         69.25800000  *  155.42600000  * -51.33400000  *
   279       H         69.30400000  *  155.46100000  * -49.55600000  *
   280       H         67.94700000  *  156.21600000  * -50.42100000  *
   281       C         71.27900000  *  157.15300000  * -50.54500000  *
   282       O         71.81100000  *  156.48500000  * -51.43800000  *
   283       N         71.97000000  *  157.79100000  * -49.60300000  *
   284       H         71.44500000  *  158.28300000  * -48.88900000  *
   285       C         73.41300000  *  157.73400000  * -49.53500000  *
   286       H         73.80300000  *  157.43200000  * -50.50200000  *
   287       C         73.96100000  *  159.11400000  * -49.18200000  *
   288       H         73.49200000  *  159.84000000  * -49.85100000  *
   289       H         73.62800000  *  159.35800000  * -48.16900000  *
   290       C         75.47300000  *  159.31600000  * -49.26600000  *
   291       H         75.96900000  *  158.63700000  * -48.57100000  *
   292       C         75.94900000  *  159.02000000  * -50.68400000  *
   293       H         75.44100000  *  159.71800000  * -51.34800000  *
   294       H         77.02400000  *  159.18800000  * -50.76300000  *
   295       H         75.74700000  *  157.98700000  * -50.96800000  *
   296       C         75.80400000  *  160.74000000  * -48.87900000  *
   297       H         75.43700000  *  160.94600000  * -47.87600000  *
   298       H         76.88200000  *  160.87900000  * -48.92200000  *
   299       H         75.32000000  *  161.42900000  * -49.57600000  *
   300       C         73.82100000  *  156.71600000  * -48.48500000  *
   301       O         73.39600000  *  156.78100000  * -47.33400000  *
   302       N         74.63900000  *  155.74600000  * -48.88600000  *
   303       H         74.87800000  *  155.72500000  * -49.87500000  *
   304       C         75.13200000  *  154.63200000  * -48.06300000  *
   305       H         74.61100000  *  154.60400000  * -47.10500000  *
   306       C         74.86200000  *  153.32500000  * -48.84600000  *
   307       H         74.42500000  *  153.57400000  * -49.81400000  *
   308       H         75.79900000  *  152.80500000  * -49.05100000  *
   309       C         73.89600000  *  152.33400000  * -48.19200000  *
   310       H         73.03200000  *  152.86900000  * -47.79800000  *
   311       H         73.54000000  *  151.67500000  * -48.98300000  *
   312       C         74.56000000  *  151.49300000  * -47.08700000  *
   313       H         75.59600000  *  151.27000000  * -47.34900000  *
   314       H         74.57300000  *  152.07500000  * -46.16200000  *
   315       C         73.81000000  *  150.16900000  * -46.84900000  *
   316       H         74.19800000  *  149.71800000  * -45.93000000  *
   317       H         72.74900000  *  150.39200000  * -46.68200000  *
   318       N         73.97000000  *  149.21700000  * -47.98900000  *
   319       H         74.93900000  *  148.96200000  * -48.13700000  *
   320       H         73.45500000  *  148.33700000  * -47.84100000  *
   321       H         73.61000000  *  149.60100000  * -48.85400000  *
   322       C         76.62300000  *  154.84600000  * -47.79700000  *
   323       O         77.41600000  *  154.67800000  * -48.71500000  *
   324       N         77.01700000  *  155.22600000  * -46.58100000  *
   325       H         76.29800000  *  155.26800000  * -45.86500000  *
   326       C         78.42200000  *  155.28900000  * -46.15900000  *
   327       H         79.06600000  *  155.59300000  * -46.98900000  *
   328       C         78.56700000  *  156.26000000  * -44.97900000  *
   329       H         78.02700000  *  155.87500000  * -44.10900000  *
   330       H         79.62500000  *  156.33900000  * -44.73000000  *
   331       C         78.01500000  *  157.64300000  * -45.34000000  *
   332       H         78.45100000  *  157.95800000  * -46.27300000  *
   333       H         76.93600000  *  157.57500000  * -45.50000000  *
   334       C         78.25100000  *  158.72500000  * -44.27900000  *
   335       H         77.97800000  *  159.68000000  * -44.73200000  *
   336       H         77.56000000  *  158.53300000  * -43.46900000  *
   337       C         79.67700000  *  158.85000000  * -43.70900000  *
   338       H         80.38400000  *  158.36300000  * -44.39700000  *
   339       H         79.95000000  *  159.91100000  * -43.68600000  *
   340       N         79.78800000  *  158.26900000  * -42.33500000  *
   341       H         79.63700000  *  157.26100000  * -42.37000000  *
   342       H         80.69600000  *  158.42600000  * -41.93200000  *
   343       H         79.10400000  *  158.64600000  * -41.70100000  *
   344       C         78.82300000  *  153.89100000  * -45.72900000  *
   345       O         78.09100000  *  153.31500000  * -44.93700000  *
   346       N         79.90700000  *  153.32000000  * -46.24700000  *
   347       H         80.40500000  *  153.76400000  * -47.01000000  *
   348       C         80.34300000  *  152.02200000  * -45.76800000  *
   349       H         79.49500000  *  151.49800000  * -45.35900000  *
   350       C         80.94400000  *  151.18600000  * -46.89500000  *
   351       H         81.78600000  *  151.78200000  * -47.16900000  *
   352       C         81.42400000  *  149.85200000  * -46.34500000  *
   353       H         80.65600000  *  149.35200000  * -45.75200000  *
   354       H         81.67900000  *  149.19900000  * -47.17900000  *
   355       H         82.34500000  *  149.95700000  * -45.76100000  *
   356       C         79.89700000  *  150.97600000  * -47.99700000  *
   357       H         79.60200000  *  151.87000000  * -48.50000000  *
   358       H         80.28300000  *  150.30500000  * -48.75000000  *
   359       C         78.59100000  *  150.36100000  * -47.52600000  *
   360       H         78.17700000  *  150.90100000  * -46.69000000  *
   361       H         77.89400000  *  150.33700000  * -48.36300000  *
   362       H         78.77100000  *  149.33300000  * -47.20900000  *
   363       C         81.33300000  *  152.07100000  * -44.61400000  *
   364       O         82.16700000  *  152.98000000  * -44.51900000  *
   365       N         81.21100000  *  151.07100000  * -43.74300000  *
   366       H         80.50300000  *  150.36100000  * -43.92800000  *
   367       C         82.04400000  *  150.90200000  * -42.55200000  *
   368       H         81.47500000  *  151.18100000  * -41.66300000  *
   369       H         82.35800000  *  149.86100000  * -42.45900000  *
   370       H         82.94700000  *  151.51400000  * -42.62000000  *
   371       H         81.25700000  *  144.04600000  * -57.89900000  *
   372       C         80.50000000  *  144.84100000  * -57.88800000  *
   373       O         79.71500000  *  144.99000000  * -58.82400000  *
   374       N         80.49900000  *  145.60300000  * -56.79700000  *
   375       H         81.28000000  *  145.52500000  * -56.16600000  *
   376       C         79.57000000  *  146.70600000  * -56.61200000  *
   377       H         78.57500000  *  146.34400000  * -56.42300000  *
   378       C         80.00500000  *  147.61000000  * -55.44200000  *
   379       H         80.89800000  *  148.18000000  * -55.68500000  *
   380       C         78.90600000  *  148.60800000  * -55.12500000  *
   381       H         77.92000000  *  148.14100000  * -55.17600000  *
   382       H         79.04500000  *  148.98700000  * -54.11600000  *
   383       H         78.93800000  *  149.43600000  * -55.83300000  *
   384       C         80.32100000  *  146.76200000  * -54.20900000  *
   385       H         81.19200000  *  146.13400000  * -54.40600000  *
   386       H         80.59400000  *  147.42200000  * -53.38900000  *
   387       C         79.18400000  *  145.87900000  * -53.76500000  *
   388       H         78.77800000  *  145.31100000  * -54.59400000  *
   389       H         79.50900000  *  145.12200000  * -53.06500000  *
   390       H         78.38800000  *  146.48300000  * -53.33500000  *
   391       C         79.54300000  *  147.54500000  * -57.87900000  *
   392       O         78.48200000  *  147.77900000  * -58.45100000  *
   393       N         80.72300000  *  147.98900000  * -58.30900000  *
   394       H         81.55800000  *  147.70100000  * -57.81200000  *
   395       C         80.85900000  *  148.80400000  * -59.51100000  *
   396       H         80.33900000  *  149.74600000  * -59.38600000  *
   397       H         81.92800000  *  148.98500000  * -59.72900000  *
   398       H         80.37800000  *  148.32200000  * -60.38100000  *
   399       H         78.96400000  *  146.08700000  * -61.65600000  *
   400       C         77.87300000  *  146.08700000  * -61.51600000  *
   401       O         77.11500000  *  145.89500000  * -62.46400000  *
   402       N         77.44600000  *  146.31800000  * -60.28000000  *
   403       H         78.13400000  *  146.42500000  * -59.54900000  *
   404       C         76.02800000  *  146.35200000  * -59.94500000  *
   405       H         75.53300000  *  145.47600000  * -60.35900000  *
   406       C         75.84100000  *  146.37400000  * -58.43100000  *
   407       H         76.20500000  *  147.30400000  * -58.01800000  *
   408       H         74.76300000  *  146.35700000  * -58.24200000  *
   409       C         76.47200000  *  145.22200000  * -57.65900000  *
   410       H         77.55000000  *  145.23900000  * -57.74900000  *
   411       C         76.08000000  *  145.34100000  * -56.19200000  *
   412       H         74.99900000  *  145.23000000  * -56.07700000  *
   413       H         76.57300000  *  144.55300000  * -55.62900000  *
   414       H         76.38500000  *  146.30900000  * -55.80100000  *
   415       C         75.99600000  *  143.89000000  * -58.23600000  *
   416       H         76.41500000  *  143.73000000  * -59.22900000  *
   417       H         76.32800000  *  143.07800000  * -57.59100000  *
   418       H         74.90500000  *  143.87400000  * -58.30500000  *
   419       C         75.32200000  *  147.55900000  * -60.54800000  *
   420       O         74.09500000  *  147.56800000  * -60.66200000  *
   421       N         76.08400000  *  148.63100000  * -60.82900000  *
   422       H         77.08200000  *  148.53500000  * -60.67700000  *
   423       C         75.60100000  *  149.83300000  * -61.53400000  *
   424       H         74.83700000  *  150.33500000  * -60.94100000  *
   425       H         76.43800000  *  150.53300000  * -61.75900000  *
   426       H         75.13800000  *  149.54900000  * -62.49200000  *
   427       H         62.79000000  *  145.77200000  * -59.27600000  *
   428       C         63.71000000  *  145.72000000  * -58.67500000  *
   429       O         63.77900000  *  145.02200000  * -57.66400000  *
   430       N         64.72400000  *  146.45200000  * -59.11400000  *
   431       H         64.63800000  *  147.05100000  * -59.92700000  *
   432       C         65.97100000  *  146.53500000  * -58.38100000  *
   433       H         65.88400000  *  146.09200000  * -57.38600000  *
   434       C         67.11600000  *  145.87700000  * -59.11400000  *
   435       H         67.33600000  *  146.42600000  * -60.03000000  *
   436       C         68.35100000  *  145.87800000  * -58.21400000  *
   437       H         68.14700000  *  145.31400000  * -57.31800000  *
   438       H         69.21000000  *  145.44500000  * -58.72400000  *
   439       H         68.64100000  *  146.89000000  * -57.94500000  *
   440       C         66.72800000  *  144.44400000  * -59.47800000  *
   441       H         66.54900000  *  143.87300000  * -58.56400000  *
   442       H         65.81500000  *  144.42400000  * -60.06800000  *
   443       C         67.77400000  *  143.72700000  * -60.29600000  *
   444       H         68.68300000  *  143.57700000  * -59.72200000  *
   445       H         67.37700000  *  142.75300000  * -60.59800000  *
   446       H         68.02300000  *  144.31300000  * -61.18000000  *
   447       C         66.29500000  *  148.01000000  * -58.22000000  *
   448       O         66.21200000  *  148.78000000  * -59.18400000  *
   449       N         66.54600000  *  148.44100000  * -56.98100000  *
   450       H         66.61700000  *  147.76000000  * -56.22900000  *
   451       C         66.88400000  *  149.83900000  * -56.68600000  *
   452       H         66.07000000  *  150.48300000  * -57.02000000  *
   453       C         67.08400000  *  150.05300000  * -55.17900000  *
   454       H         67.87800000  *  149.39400000  * -54.82400000  *
   455       C         67.46500000  *  151.49800000  * -54.84600000  *
   456       H         66.64300000  *  152.17500000  * -55.08100000  *
   457       H         67.69500000  *  151.55500000  * -53.78500000  *
   458       H         68.34700000  *  151.80500000  * -55.40200000  *
   459       C         65.80300000  *  149.74400000  * -54.40100000  *
   460       H         65.52600000  *  148.69900000  * -54.51200000  *
   461       H         65.98200000  *  149.93600000  * -53.34700000  *
   462       H         64.98700000  *  150.37400000  * -54.75200000  *
   463       C         68.14700000  *  150.21300000  * -57.45500000  *
   464       O         69.17400000  *  149.54000000  * -57.33200000  *
   465       N         68.08000000  *  151.28300000  * -58.25100000  *
   466       H         67.22500000  *  151.80400000  * -58.24500000  *
   467       C         69.18900000  *  151.69800000  * -59.08000000  *
   468       H         69.52500000  *  150.81900000  * -59.63900000  *
   469       C         68.73700000  *  152.76800000  * -60.08300000  *
   470       H         67.83400000  *  152.41100000  * -60.57900000  *
   471       H         68.47700000  *  153.68100000  * -59.53700000  *
   472       C         69.79100000  *  153.06900000  * -61.13100000  *
   473       H         70.72100000  *  153.35000000  * -60.64200000  *
   474       H         69.97400000  *  152.16800000  * -61.71600000  *
   475       C         69.35100000  *  154.17900000  * -62.08100000  *
   476       H         68.50200000  *  153.81400000  * -62.66100000  *
   477       H         69.02300000  *  155.05600000  * -61.52200000  *
   478       C         70.49800000  *  154.55900000  * -63.02400000  *
   479       H         71.33900000  *  154.89000000  * -62.40800000  *
   480       H         70.81900000  *  153.66100000  * -63.56600000  *
   481       N         70.11800000  *  155.62600000  * -63.99700000  *
   482       H         69.74700000  *  156.41600000  * -63.48300000  *
   483       H         70.92600000  *  155.93300000  * -64.52500000  *
   484       H         69.41500000  *  155.27800000  * -64.63600000  *
   485       C         70.36000000  *  152.21400000  * -58.25300000  *
   486       O         70.19400000  *  153.07400000  * -57.38700000  *
   487       N         71.53700000  *  151.64500000  * -58.50700000  *
   488       H         71.59600000  *  150.90400000  * -59.18600000  *
   489       C         72.75000000  *  152.07400000  * -57.83600000  *
   490       H         72.53800000  *  152.52600000  * -56.87100000  *
   491       C         73.72700000  *  150.91100000  * -57.67000000  *
   492       H         73.31500000  *  150.22100000  * -56.93700000  *
   493       H         73.77900000  *  150.36900000  * -58.62000000  *
   494       C         75.16700000  *  151.27300000  * -57.28800000  *
   495       H         75.65500000  *  151.80300000  * -58.10000000  *
   496       C         75.18300000  *  152.16500000  * -56.05900000  *
   497       H         74.60800000  *  151.72100000  * -55.25200000  *
   498       H         76.21000000  *  152.29600000  * -55.73500000  *
   499       H         74.78900000  *  153.14000000  * -56.31200000  *
   500       C         75.93300000  *  149.99400000  * -57.01300000  *
   501       H         75.98300000  *  149.42100000  * -57.93300000  *
   502       H         76.94600000  *  150.24200000  * -56.71200000  *
   503       H         75.43500000  *  149.41000000  * -56.23200000  *
   504       C         73.31900000  *  153.11300000  * -58.79500000  *
   505       O         73.76900000  *  152.77900000  * -59.89700000  *
   506       N         73.26700000  *  154.36900000  * -58.37800000  *
   507       H         72.92600000  *  154.57000000  * -57.44900000  *
   508       C         73.73400000  *  155.46600000  * -59.19700000  *
   509       H         73.47500000  *  155.26500000  * -60.23600000  *
   510       C         73.02500000  *  156.74200000  * -58.76000000  *
   511       H         73.45000000  *  157.06300000  * -57.80900000  *
   512       H         73.23600000  *  157.53300000  * -59.48700000  *
   513       C         71.51300000  *  156.60300000  * -58.58700000  *
   514       H         71.27400000  *  155.80900000  * -57.88500000  *
   515       C         70.97400000  *  157.88000000  * -58.01900000  *
   516       H         71.37000000  *  158.74600000  * -58.56000000  *
   517       H         69.88800000  *  157.89100000  * -58.09300000  *
   518       H         71.22100000  *  157.96000000  * -56.96600000  *
   519       C         70.85100000  *  156.29000000  * -59.92300000  *
   520       H         71.28300000  *  155.39700000  * -60.34200000  *
   521       H         69.78900000  *  156.14400000  * -59.75100000  *
   522       H         71.00300000  *  157.12700000  * -60.60700000  *
   523       C         75.24500000  *  155.67800000  * -59.15800000  *
   524       O         75.83900000  *  156.04700000  * -60.17600000  *
   525       N         75.86200000  *  155.44600000  * -57.99600000  *
   526       H         75.29500000  *  155.17900000  * -57.20400000  *
   527       C         77.30800000  *  155.64700000  * -57.82900000  *
   528       H         77.80800000  *  155.40400000  * -58.76600000  *
   529       C         77.60000000  *  157.11700000  * -57.51900000  *
   530       H         76.91700000  *  157.54400000  * -56.80300000  *
   531       H         78.58200000  *  157.17000000  * -57.04800000  *
   532       C         77.65600000  *  157.97500000  * -58.75600000  *
   533       O         78.67800000  *  157.91700000  * -59.48300000  *
   534       O         76.67400000  *  158.70400000  * -59.00000000  *
   535       C         77.97900000  *  154.81700000  * -56.73400000  *
   536       O         77.37100000  *  154.52100000  * -55.70400000  *
   537       N         79.24700000  *  154.47700000  * -56.96600000  *
   538       H         79.69800000  *  154.82400000  * -57.79800000  *
   539       C         80.06100000  *  153.73800000  * -56.00300000  *
   540       H         79.55400000  *  153.69900000  * -55.05200000  *
   541       C         80.36600000  *  152.29800000  * -56.50400000  *
   542       H         79.42700000  *  151.75200000  * -56.56200000  *
   543       C         80.98100000  *  152.34300000  * -57.88400000  *
   544       H         82.06600000  *  152.43300000  * -57.82100000  *
   545       H         80.74600000  *  151.41400000  * -58.37900000  *
   546       H         80.59600000  *  153.14500000  * -58.51000000  *
   547       C         81.29900000  *  151.58800000  * -55.53900000  *
   548       H         80.81100000  *  151.54900000  * -54.57200000  *
   549       H         81.47300000  *  150.57200000  * -55.87800000  *
   550       H         82.25900000  *  152.09200000  * -55.44900000  *
   551       C         81.36500000  *  154.53600000  * -55.81000000  *
   552       O         82.27000000  *  154.48900000  * -56.64700000  *
   553       N         81.45200000  *  155.28200000  * -54.71000000  *
   554       H         80.67600000  *  155.30400000  * -54.06400000  *
   555       C         82.62100000  *  156.11100000  * -54.44300000  *
   556       H         83.20500000  *  156.21800000  * -55.35800000  *
   557       H         82.32200000  *  157.12800000  * -54.14500000  *
   558       H         83.29700000  *  155.73900000  * -53.65600000  *
   559       H         84.58000000  *  155.17100000  * -47.07300000  *
   560       C         84.22500000  *  154.98400000  * -48.09100000  *
   561       O         84.63900000  *  155.65900000  * -49.04200000  *
   562       N         83.35800000  *  153.99100000  * -48.22200000  *
   563       H         83.13600000  *  153.42800000  * -47.41700000  *
   564       C         82.77600000  *  153.65100000  * -49.50600000  *
   565       H         83.37000000  *  154.04700000  * -50.31700000  *
   566       C         82.71900000  *  152.14000000  * -49.66000000  *
   567       H         83.74000000  *  151.87500000  * -49.95700000  *
   568       H         82.64400000  *  151.54600000  * -48.78400000  *
   569       C         81.82600000  *  151.61900000  * -50.77900000  *
   570       H         80.79100000  *  151.88400000  * -50.58700000  *
   571       C         82.25800000  *  152.23100000  * -52.09200000  *
   572       H         83.31100000  *  152.49100000  * -52.08900000  *
   573       H         82.09300000  *  151.51300000  * -52.88400000  *
   574       H         81.65400000  *  153.10900000  * -52.31200000  *
   575       C         81.89900000  *  150.09400000  * -50.82200000  *
   576       H         81.91300000  *  149.66400000  * -49.82700000  *
   577       H         81.05200000  *  149.70600000  * -51.39100000  *
   578       H         82.82500000  *  149.80300000  * -51.32100000  *
   579       C         81.36700000  *  154.23200000  * -49.54800000  *
   580       O         80.51800000  *  153.85700000  * -48.74500000  *
   581       N         81.13100000  *  155.16100000  * -50.46700000  *
   582       H         81.84500000  *  155.34800000  * -51.16200000  *
   583       C         79.82200000  *  155.78100000  * -50.60800000  *
   584       H         79.27400000  *  155.67000000  * -49.68700000  *
   585       C         79.96700000  *  157.27800000  * -50.86800000  *
   586       H         80.42300000  *  157.50400000  * -51.79700000  *
   587       H         78.95400000  *  157.66400000  * -50.98900000  *
   588       C         80.57600000  *  158.04300000  * -49.72300000  *
   589       C         79.79300000  *  158.48000000  * -48.65600000  *
   590       H         78.73500000  *  158.25400000  * -48.66900000  *
   591       C         80.35600000  *  159.18600000  * -47.59400000  *
   592       H         79.75300000  *  159.56200000  * -46.79700000  *
   593       C         81.71600000  *  159.45200000  * -47.58700000  *
   594       O         82.27600000  *  160.12500000  * -46.52100000  *
   595       H         83.20600000  *  160.30800000  * -46.74500000  *
   596       C         82.51400000  *  159.02600000  * -48.63700000  *
   597       H         83.58200000  *  159.23300000  * -48.65000000  *
   598       C         81.94100000  *  158.32800000  * -49.69800000  *
   599       H         82.57400000  *  157.98100000  * -50.50200000  *
   600       C         79.04800000  *  155.15800000  * -51.76500000  *
   601       O         79.54400000  *  155.08000000  * -52.88800000  *
   602       N         77.86300000  *  154.62300000  * -51.49500000  *
   603       H         77.53600000  *  154.64600000  * -50.53500000  *
   604       C         76.98300000  *  154.05400000  * -52.51300000  *
   605       H         77.50700000  *  154.00400000  * -53.46100000  *
   606       C         76.55400000  *  152.62100000  * -52.15600000  *
   607       H         75.87500000  *  152.66100000  * -51.31300000  *
   608       H         76.00200000  *  152.21900000  * -53.00600000  *
   609       C         77.69300000  *  151.64900000  * -51.80600000  *
   610       H         78.20800000  *  151.99000000  * -50.90800000  *
   611       C         77.12700000  *  150.25600000  * -51.54000000  *
   612       H         76.62800000  *  149.87500000  * -52.43300000  *
   613       H         77.93400000  *  149.57500000  * -51.26500000  *
   614       H         76.41400000  *  150.29900000  * -50.71800000  *
   615       C         78.69700000  *  151.53600000  * -52.94500000  *
   616       H         79.21300000  *  152.48400000  * -53.07200000  *
   617       H         79.43700000  *  150.77600000  * -52.70300000  *
   618       H         78.18400000  *  151.27400000  * -53.87200000  *
   619       C         75.78700000  *  154.98500000  * -52.67300000  *
   620       O         75.10300000  *  155.26100000  * -51.68400000  *
   621       N         75.54700000  *  155.50800000  * -53.87800000  *
   622       H         76.14500000  *  155.25500000  * -54.66000000  *
   623       C         74.40900000  *  156.37500000  * -54.09400000  *
   624       H         73.97600000  *  156.70200000  * -53.15000000  *
   625       C         74.83400000  *  157.63700000  * -54.81800000  *
   626       H         75.25500000  *  157.34500000  * -55.76600000  *
   627       C         73.61400000  *  158.52200000  * -55.10900000  *
   628       H         73.11700000  *  158.76900000  * -54.17500000  *
   629       H         73.94100000  *  159.43100000  * -55.61500000  *
   630       H         72.91600000  *  158.00900000  * -55.76200000  *
   631       C         75.84000000  *  158.38200000  * -53.94900000  *
   632       H         75.28100000  *  158.78400000  * -53.13000000  *
   633       H         76.65600000  *  157.75800000  * -53.60500000  *
   634       H         76.26100000  *  159.20400000  * -54.52500000  *
   635       C         73.31400000  *  155.64400000  * -54.85300000  *
   636       O         73.49500000  *  155.22100000  * -55.99400000  *
   637       N         72.19600000  *  155.40500000  * -54.17200000  *
   638       H         72.12300000  *  155.76200000  * -53.22300000  *
   639       C         71.01800000  *  154.74100000  * -54.72300000  *
   640       H         71.27300000  *  154.28600000  * -55.67600000  *
   641       C         70.55700000  *  153.63500000  * -53.76900000  *
   642       H         70.40000000  *  154.06600000  * -52.78000000  *
   643       H         69.59300000  *  153.27100000  * -54.11700000  *
   644       C         71.49300000  *  152.44800000  * -53.64300000  *
   645       C         71.36000000  *  151.34900000  * -54.51400000  *
   646       H         70.61800000  *  151.36300000  * -55.29900000  *
   647       C         72.18100000  *  150.21800000  * -54.36100000  *
   648       H         72.06700000  *  149.37100000  * -55.02500000  *
   649       C         73.14700000  *  150.18400000  * -53.34100000  *
   650       H         73.78100000  *  149.31400000  * -53.22400000  *
   651       C         73.28700000  *  151.28200000  * -52.47400000  *
   652       H         74.02200000  *  151.24900000  * -51.68400000  *
   653       C         72.46600000  *  152.41500000  * -52.62500000  *
   654       H         72.57300000  *  153.25400000  * -51.95000000  *
   655       C         69.88600000  *  155.74600000  * -54.95900000  *
   656       O         69.73200000  *  156.70500000  * -54.20200000  *
   657       N         69.07200000  *  155.53400000  * -55.99600000  *
   658       H         69.23600000  *  154.71600000  * -56.57500000  *
   659       C         67.81200000  *  156.27800000  * -56.16500000  *
   660       H         68.05800000  *  157.32700000  * -56.33800000  *
   661       C         67.04300000  *  155.76700000  * -57.39600000  *
   662       H         66.18500000  *  156.42300000  * -57.54900000  *
   663       H         67.68900000  *  155.83500000  * -58.27100000  *
   664       C         66.54500000  *  154.31900000  * -57.25000000  *
   665       H         67.40600000  *  153.66500000  * -57.10400000  *
   666       H         65.91100000  *  154.24100000  * -56.37100000  *
   667       C         65.71600000  *  153.81500000  * -58.43400000  *
   668       O         65.24300000  *  154.62100000  * -59.26700000  *
   669       O         65.49600000  *  152.58400000  * -58.49100000  *
   670       C         66.94800000  *  156.19900000  * -54.88900000  *
   671       O         66.85000000  *  155.13800000  * -54.27200000  *
   672       N         66.32800000  *  157.29800000  * -54.45600000  *
   673       H         66.39100000  *  158.15400000  * -54.99000000  *
   674       C         65.46500000  *  157.27900000  * -53.27100000  *
   675       H         65.93200000  *  156.64900000  * -52.51100000  *
   676       C         65.36500000  *  158.68900000  * -52.68500000  *
   677       H         66.36800000  *  159.03700000  * -52.44400000  *
   678       H         64.94900000  *  159.35700000  * -53.44100000  *
   679       C         64.52400000  *  158.78000000  * -51.42600000  *
   680       C         63.23000000  *  159.33100000  * -51.47600000  *
   681       H         62.82800000  *  159.69000000  * -52.41400000  *
   682       C         62.45400000  *  159.41700000  * -50.30800000  *
   683       H         61.46000000  *  159.84100000  * -50.35200000  *
   684       C         62.96700000  *  158.95000000  * -49.08600000  *
   685       H         62.36800000  *  159.01500000  * -48.18700000  *
   686       C         64.26000000  *  158.40100000  * -49.03200000  *
   687       H         64.65400000  *  158.04600000  * -48.09000000  *
   688       C         65.03800000  *  158.31500000  * -50.20000000  *
   689       H         66.03200000  *  157.89200000  * -50.15600000  *
   690       C         64.07600000  *  156.69300000  * -53.57500000  *
   691       O         63.42700000  *  157.08800000  * -54.54800000  *
   692       N         63.60000000  *  155.79800000  * -52.70500000  *
   693       H         64.20700000  *  155.51100000  * -51.94600000  *
   694       C         62.19800000  *  155.36800000  * -52.62000000  *
   695       H         61.59500000  *  155.93000000  * -53.33600000  *
   696       C         62.05300000  *  153.86700000  * -52.93000000  *
   697       H         62.79900000  *  153.31100000  * -52.36800000  *
   698       H         61.07100000  *  153.55900000  * -52.56800000  *
   699       C         62.14300000  *  153.50600000  * -54.42500000  *
   700       H         61.70400000  *  154.30700000  * -55.01900000  *
   701       C         63.58400000  *  153.26800000  * -54.88100000  *
   702       H         64.03900000  *  152.47700000  * -54.29000000  *
   703       H         63.60000000  *  152.99600000  * -55.93500000  *
   704       H         64.16700000  *  154.17800000  * -54.75900000  *
   705       C         61.35700000  *  152.22300000  * -54.70900000  *
   706       H         60.32100000  *  152.34500000  * -54.39500000  *
   707       H         61.36500000  *  152.01500000  * -55.77800000  *
   708       H         61.79500000  *  151.38100000  * -54.17400000  *
   709       C         61.65800000  *  155.69400000  * -51.22100000  *
   710       O         62.39800000  *  155.66500000  * -50.24000000  *
   711       N         60.38100000  *  156.05800000  * -51.13100000  *
   712       H         59.83900000  *  156.09200000  * -51.98600000  *
   713       C         59.81600000  *  156.75200000  * -49.96700000  *
   714       H         60.53500000  *  157.50700000  * -49.64600000  *
   715       C         58.54900000  *  157.49600000  * -50.41200000  *
   716       H         57.77100000  *  156.76500000  * -50.63400000  *
   717       H         58.20800000  *  158.12000000  * -49.58600000  *
   718       C         58.73200000  *  158.37300000  * -51.63000000  *
   719       N         58.80300000  *  157.92200000  * -52.95300000  *
   720       C         58.98600000  *  159.02000000  * -53.70800000  *
   721       H         59.08300000  *  159.02400000  * -54.78800000  *
   722       N         59.03300000  *  160.11700000  * -52.93300000  *
   723       H         59.16000000  *  161.06600000  * -53.27200000  *
   724       C         58.87500000  *  159.73000000  * -51.62000000  *
   725       H         58.86500000  *  160.37000000  * -50.74600000  *
   726       C         59.54400000  *  155.88100000  * -48.72600000  *
   727       O         59.40400000  *  156.43100000  * -47.63300000  *
   728       N         59.46800000  *  154.55000000  * -48.86000000  *
   729       H         59.60700000  *  154.15300000  * -49.78000000  *
   730       C         59.09500000  *  153.62700000  * -47.77500000  *
   731       H         59.55000000  *  153.97600000  * -46.84800000  *
   732       C         57.56100000  *  153.66600000  * -47.59800000  *
   733       H         57.27600000  *  154.68300000  * -47.32300000  *
   734       H         57.07600000  *  153.42400000  * -48.54500000  *
   735       C         57.04200000  *  152.70800000  * -46.51500000  *
   736       H         56.92400000  *  151.71500000  * -46.94500000  *
   737       H         57.76900000  *  152.65000000  * -45.70600000  *
   738       C         55.72000000  *  153.16100000  * -45.90700000  *
   739       O         55.67100000  *  153.87800000  * -44.92100000  *
   740       N         54.59300000  *  152.76400000  * -46.46000000  *
   741       H         53.74000000  *  153.08600000  * -46.03000000  *
   742       H         54.60300000  *  152.20100000  * -47.29200000  *
   743       C         59.61000000  *  152.19500000  * -48.02000000  *
   744       O         59.69100000  *  151.75000000  * -49.16700000  *
   745       N         59.93800000  *  151.46300000  * -46.94900000  *
   746       H         59.83600000  *  151.88600000  * -46.02700000  *
   747       C         60.26800000  *  150.02900000  * -47.01900000  *
   748       H         60.55900000  *  149.80600000  * -48.04200000  *
   749       C         61.49900000  *  149.69900000  * -46.15700000  *
   750       H         61.81800000  *  148.68900000  * -46.41700000  *
   751       H         62.30900000  *  150.37400000  * -46.43700000  *
   752       C         61.28500000  *  149.75400000  * -44.63900000  *
   753       O         60.31700000  *  149.14100000  * -44.14200000  *
   754       O         62.13800000  *  150.35900000  * -43.94900000  *
   755       C         59.06800000  *  149.11000000  * -46.71000000  *
   756       O         58.03400000  *  149.54100000  * -46.18300000  *
   757       N         59.19100000  *  147.81900000  * -47.04800000  *
   758       H         60.03800000  *  147.50900000  * -47.52500000  *
   759       C         58.10100000  *  146.88000000  * -46.84100000  *
   760       H         57.21800000  *  147.32500000  * -47.29300000  *
   761       C         58.41200000  *  145.57700000  * -47.59200000  *
   762       H         58.61300000  *  145.80400000  * -48.64400000  *
   763       H         59.28800000  *  145.12100000  * -47.15800000  *
   764       C         57.28700000  *  144.52700000  * -47.51900000  *
   765       H         57.05600000  *  144.28000000  * -46.48700000  *
   766       C         56.00700000  *  145.04400000  * -48.19600000  *
   767       H         56.23500000  *  145.37800000  * -49.20200000  *
   768       H         55.26800000  *  144.24500000  * -48.23100000  *
   769       H         55.59500000  *  145.87000000  * -47.62900000  *
   770       C         57.76800000  *  143.24900000  * -48.17500000  *
   771       H         58.61500000  *  142.85400000  * -47.62000000  *
   772       H         56.97300000  *  142.50400000  * -48.17100000  *
   773       H         58.06400000  *  143.44500000  * -49.20700000  *
   774       C         57.76400000  *  146.61300000  * -45.36900000  *
   775       O         56.60900000  *  146.37600000  * -45.03000000  *
   776       N         58.75700000  *  146.67700000  * -44.48800000  *
   777       H         59.64000000  *  147.08600000  * -44.79000000  *
   778       C         58.49100000  *  146.46700000  * -43.07300000  *
   779       H         57.97900000  *  145.55100000  * -42.87200000  *
   780       C         59.78200000  *  146.47800000  * -42.25400000  *
   781       H         60.44800000  *  145.70000000  * -42.62000000  *
   782       H         60.28600000  *  147.44000000  * -42.35600000  *
   783       C         59.49200000  *  146.22900000  * -40.76500000  *
   784       H         58.94200000  *  147.08300000  * -40.37400000  *
   785       H         58.87100000  *  145.33200000  * -40.67600000  *
   786       C         60.74500000  *  146.03800000  * -39.93500000  *
   787       H         61.36100000  *  145.25900000  * -40.37900000  *
   788       H         61.30800000  *  146.97100000  * -39.90700000  *
   789       C         60.37600000  *  145.60700000  * -38.51700000  *
   790       H         59.98500000  *  144.58900000  * -38.53700000  *
   791       H         61.27900000  *  145.61300000  * -37.90300000  *
   792       N         59.34600000  *  146.53100000  * -37.94700000  *
   793       H         58.44600000  *  146.48100000  * -38.44300000  *
   794       H         59.09000000  *  146.27800000  * -37.00400000  *
   795       H         59.61300000  *  147.50600000  * -37.97800000  *
   796       C         57.55800000  *  147.53800000  * -42.51200000  *
   797       O         56.61300000  *  147.23400000  * -41.78300000  *
   798       N         57.83800000  *  148.81500000  * -42.79900000  *
   799       H         58.66600000  *  149.01100000  * -43.36600000  *
   800       C         56.99900000  *  149.92600000  * -42.32500000  *
   801       H         56.88600000  *  149.83500000  * -41.24300000  *
   802       C         57.66400000  *  151.27900000  * -42.62100000  *
   803       H         58.66100000  *  151.28500000  * -42.17900000  *
   804       H         57.75900000  *  151.41400000  * -43.70000000  *
   805       C         56.84100000  *  152.43200000  * -42.02000000  *
   806       H         55.87900000  *  152.49000000  * -42.53000000  *
   807       H         56.66000000  *  152.22800000  * -40.96300000  *
   808       C         57.54700000  *  153.78700000  * -42.14300000  *
   809       H         58.47200000  *  153.76200000  * -41.56400000  *
   810       H         57.77900000  *  153.98100000  * -43.19200000  *
   811       C         56.62500000  *  154.88900000  * -41.60300000  *
   812       H         55.71000000  *  154.90200000  * -42.20400000  *
   813       H         56.34600000  *  154.63800000  * -40.57600000  *
   814       N         57.27300000  *  156.22500000  * -41.63500000  *
   815       H         57.51700000  *  156.49500000  * -42.57700000  *
   816       H         56.65400000  *  156.93400000  * -41.26700000  *
   817       H         58.11300000  *  156.23900000  * -41.07600000  *
   818       C         55.59800000  *  149.82000000  * -42.92000000  *
   819       O         54.61600000  *  150.04600000  * -42.21900000  *
   820       N         55.49500000  *  149.42600000  * -44.18900000  *
   821       H         56.35000000  *  149.26300000  * -44.71300000  *
   822       C         54.20500000  *  149.26000000  * -44.85200000  *
   823       H         53.62600000  *  150.17500000  * -44.72500000  *
   824       C         54.41000000  *  148.98800000  * -46.34000000  *
   825       H         54.98900000  *  149.80200000  * -46.77700000  *
   826       H         55.00200000  *  148.07700000  * -46.45200000  *
   827       C         53.12600000  *  148.85300000  * -47.10800000  *
   828       C         52.23100000  *  149.92200000  * -47.18600000  *
   829       H         52.46300000  *  150.85600000  * -46.69900000  *
   830       C         51.01500000  *  149.79500000  * -47.88400000  *
   831       H         50.32500000  *  150.62800000  * -47.91800000  *
   832       C         50.69700000  *  148.60300000  * -48.50200000  *
   833       H         49.75200000  *  148.50200000  * -49.02000000  *
   834       C         51.58700000  *  147.52100000  * -48.43200000  *
   835       H         51.33500000  *  146.58300000  * -48.91200000  *
   836       C         52.79500000  *  147.65400000  * -47.73300000  *
   837       H         53.46700000  *  146.81000000  * -47.67200000  *
   838       C         53.37400000  *  148.12200000  * -44.22700000  *
   839       O         52.16900000  *  148.28300000  * -44.00900000  *
   840       N         54.01600000  *  146.98100000  * -43.96600000  *
   841       H         55.00900000  *  146.90600000  * -44.17900000  *
   842       C         53.33800000  *  145.83600000  * -43.34100000  *
   843       H         52.47600000  *  145.52800000  * -43.93400000  *
   844       C         54.29200000  *  144.65000000  * -43.17000000  *
   845       H         55.15800000  *  145.02700000  * -42.63600000  *
   846       H         53.80700000  *  143.89200000  * -42.54700000  *
   847       C         54.73100000  *  144.00400000  * -44.46100000  *
   848       H         53.84700000  *  143.61400000  * -44.95900000  *
   849       H         55.19200000  *  144.69400000  * -45.15000000  *
   850       S         55.79700000  *  142.58100000  * -44.15400000  *
   851       C         57.05400000  *  143.29200000  * -43.18800000  *
   852       H         56.67800000  *  143.65800000  * -42.23500000  *
   853       H         57.80700000  *  142.53400000  * -42.98200000  *
   854       H         57.44300000  *  144.07900000  * -43.80900000  *
   855       C         52.84400000  *  146.26000000  * -41.95900000  *
   856       O         51.68200000  *  146.03200000  * -41.61400000  *
   857       N         53.72600000  *  146.88400000  * -41.17900000  *
   858       H         54.70100000  *  146.95700000  * -41.45300000  *
   859       C         53.34300000  *  147.35100000  * -39.84600000  *
   860       H         53.03400000  *  146.49700000  * -39.23800000  *
   861       C         54.50500000  *  148.07700000  * -39.15700000  *
   862       H         54.94100000  *  148.81500000  * -39.83000000  *
   863       H         54.12400000  *  148.60600000  * -38.28400000  *
   864       C         55.58400000  *  147.11500000  * -38.68500000  *
   865       O         55.26200000  *  145.90900000  * -38.57600000  *
   866       O         56.73300000  *  147.55200000  * -38.41700000  *
   867       C         52.15000000  *  148.27900000  * -39.96300000  *
   868       O         51.20300000  *  148.18000000  * -39.18700000  *
   869       N         52.18300000  *  149.16200000  * -40.95500000  *
   870       H         53.01600000  *  149.23700000  * -41.51800000  *
   871       C         51.08600000  *  150.10000000  * -41.17300000  *
   872       H         50.93100000  *  150.67400000  * -40.25800000  *
   873       C         51.42800000  *  151.06800000  * -42.31500000  *
   874       H         51.45500000  *  150.53900000  * -43.26600000  *
   875       H         50.66000000  *  151.83800000  * -42.36800000  *
   876       H         52.39300000  *  151.53600000  * -42.12800000  *
   877       C         49.78900000  *  149.37000000  * -41.49900000  *
   878       O         48.71100000  *  149.83600000  * -41.15600000  *
   879       N         49.90500000  *  148.22900000  * -42.16400000  *
   880       H         50.83800000  *  147.88500000  * -42.38200000  *
   881       C         48.74000000  *  147.45400000  * -42.57500000  *
   882       H         47.85700000  *  148.08600000  * -42.62800000  *
   883       H         48.90600000  *  147.02300000  * -43.58600000  *
   884       H         48.52600000  *  146.61900000  * -41.88800000  *
   885       H         72.54500000  *  137.05800000  * -55.15200000  *
   886       C         72.38600000  *  137.90500000  * -54.47400000  *
   887       O         73.28300000  *  138.71900000  * -54.28600000  *
   888       N         71.20100000  *  138.01500000  * -53.89800000  *
   889       H         70.47300000  *  137.31400000  * -54.05700000  *
   890       C         70.96800000  *  139.10000000  * -52.94900000  *
   891       H         71.50000000  *  140.00600000  * -53.22900000  *
   892       C         69.47700000  *  139.40500000  * -52.82500000  *
   893       H         69.09300000  *  139.71900000  * -53.79200000  *
   894       H         68.93000000  *  138.50600000  * -52.53300000  *
   895       C         69.17800000  *  140.45400000  * -51.81200000  *
   896       N         69.23000000  *  140.42300000  * -50.45900000  *
   897       C         68.94700000  *  141.69100000  * -50.01400000  *
   898       H         68.96900000  *  142.01200000  * -48.98400000  *
   899       N         68.72400000  *  142.47200000  * -51.05500000  *
   900       H         68.47200000  *  143.44500000  * -51.00700000  *
   901       C         68.85400000  *  141.75000000  * -52.15500000  *
   902       H         68.77100000  *  142.12600000  * -53.16500000  *
   903       C         71.52100000  *  138.65700000  * -51.58300000  *
   904       O         72.28000000  *  139.38000000  * -50.94700000  *
   905       N         71.11400000  *  137.47100000  * -51.14500000  *
   906       H         70.37100000  *  137.01600000  * -51.66500000  *
   907       C         71.55500000  *  136.88000000  * -49.87700000  *
   908       H         71.18200000  *  135.84900000  * -49.87900000  *
   909       C         73.07600000  *  136.85300000  * -49.83700000  *
   910       H         73.53100000  *  137.83300000  * -49.86900000  *
   911       H         73.36600000  *  136.47900000  * -48.85100000  *
   912       C         73.64700000  *  135.85900000  * -50.81700000  *
   913       H         73.29800000  *  134.87100000  * -50.67200000  *
   914       H         73.21600000  *  136.10500000  * -51.78700000  *
   915       C         75.11700000  *  136.08400000  * -50.99900000  *
   916       H         75.61200000  *  135.95400000  * -50.03300000  *
   917       H         75.49500000  *  135.33200000  * -51.69500000  *
   918       N         75.35800000  *  137.42700000  * -51.50600000  *
   919       H         74.62100000  *  138.12700000  * -51.38200000  *
   920       C         76.54800000  *  137.85900000  * -51.89000000  *
   921       N         77.59300000  *  137.04400000  * -51.81500000  *
   922       H         77.44700000  *  136.21200000  * -51.26800000  *
   923       H         78.49900000  *  137.44300000  * -51.92100000  *
   924       N         76.69000000  *  139.09300000  * -52.35600000  *
   925       H         75.86000000  *  139.69200000  * -52.33800000  *
   926       H         77.56200000  *  139.47800000  * -52.67100000  *
   927       C         71.03700000  *  137.42400000  * -48.54200000  *
   928       O         71.18700000  *  136.76800000  * -47.50900000  *
   929       N         70.43700000  *  138.60400000  * -48.51600000  *
   930       H         70.32800000  *  139.16900000  * -49.34700000  *
   931       C         69.93700000  *  139.07600000  * -47.23100000  *
   932       H         69.76500000  *  138.24900000  * -46.54100000  *
   933       C         70.93500000  *  140.04200000  * -46.56200000  *
   934       H         71.90900000  *  139.56600000  * -46.50900000  *
   935       H         71.04400000  *  140.94300000  * -47.17900000  *
   936       C         70.51300000  *  140.42800000  * -45.14700000  *
   937       O         70.17200000  *  139.51500000  * -44.35500000  *
   938       O         70.51000000  *  141.64400000  * -44.82500000  *
   939       C         68.58700000  *  139.73400000  * -47.37800000  *
   940       O         68.35000000  *  140.81000000  * -46.83500000  *
   941       N         67.68700000  *  139.08300000  * -48.11000000  *
   942       H         67.94300000  *  138.20800000  * -48.54500000  *
   943       C         66.35900000  *  139.64900000  * -48.29900000  *
   944       H         66.47700000  *  140.66700000  * -48.65900000  *
   945       C         65.54600000  *  138.81300000  * -49.28800000  *
   946       H         65.58300000  *  137.78400000  * -48.94500000  *
   947       H         64.50600000  *  139.14000000  * -49.25500000  *
   948       C         66.02700000  *  138.85500000  * -50.73600000  *
   949       H         67.06400000  *  138.52800000  * -50.78200000  *
   950       C         65.17300000  *  137.91700000  * -51.58300000  *
   951       H         64.15900000  *  138.30500000  * -51.68800000  *
   952       H         65.63400000  *  137.80700000  * -52.55000000  *
   953       H         65.13400000  *  136.93500000  * -51.11000000  *
   954       C         65.92100000  *  140.27700000  * -51.26400000  *
   955       H         66.42000000  *  140.99600000  * -50.63300000  *
   956       H         66.44200000  *  140.27500000  * -52.20900000  *
   957       H         64.88200000  *  140.56100000  * -51.39700000  *
   958       C         65.59400000  *  139.73400000  * -46.98200000  *
   959       O         65.58600000  *  138.79200000  * -46.16600000  *
   960       N         64.95400000  *  140.85400000  * -46.74600000  *
   961       H         64.96300000  *  141.58600000  * -47.44400000  *
   962       C         64.16100000  *  141.05700000  * -45.54900000  *
   963       H         63.54500000  *  140.16800000  * -45.41900000  *
   964       C         65.03200000  *  141.20800000  * -44.28400000  *
   965       H         64.39200000  *  141.27800000  * -43.40400000  *
   966       H         65.61800000  *  140.29700000  * -44.16400000  *
   967       C         65.98300000  *  142.41100000  * -44.28000000  *
   968       H         66.40600000  *  142.55300000  * -45.27200000  *
   969       H         65.43800000  *  143.30700000  * -43.98800000  *
   970       C         67.12400000  *  142.13100000  * -43.29600000  *
   971       H         66.71100000  *  141.85700000  * -42.32200000  *
   972       H         67.69800000  *  141.28500000  * -43.68200000  *
   973       C         68.04300000  *  143.34300000  * -43.12900000  *
   974       H         68.15600000  *  143.84200000  * -44.09700000  *
   975       H         67.56500000  *  144.05000000  * -42.44100000  *
   976       N         69.37000000  *  142.91400000  * -42.61500000  *
   977       H         69.86600000  *  142.36400000  * -43.33100000  *
   978       H         69.93700000  *  143.71200000  * -42.35700000  *
   979       H         69.26500000  *  142.33600000  * -41.79100000  *
   980       C         63.26600000  *  142.23000000  * -45.83600000  *
   981       O         63.63100000  *  143.07600000  * -46.65100000  *
   982       N         62.11200000  *  142.30300000  * -45.18600000  *
   983       C         61.62600000  *  141.34600000  * -44.17100000  *
   984       H         62.10000000  *  141.53200000  * -43.20900000  *
   985       H         61.74500000  *  140.31100000  * -44.47600000  *
   986       C         60.16400000  *  141.66900000  * -44.09500000  *
   987       H         59.73700000  *  141.34900000  * -43.14300000  *
   988       H         59.63700000  *  141.20600000  * -44.93200000  *
   989       C         60.16000000  *  143.18900000  * -44.24800000  *
   990       H         60.51600000  *  143.64900000  * -43.32100000  *
   991       H         59.20200000  *  143.56500000  * -44.57400000  *
   992       C         61.14500000  *  143.38000000  * -45.40300000  *
   993       H         60.63400000  *  143.20500000  * -46.34500000  *
   994       C         61.77100000  *  144.77100000  * -45.44800000  *
   995       O         61.39200000  *  145.58400000  * -46.27300000  *
   996       N         62.71300000  *  145.08600000  * -44.54300000  *
   997       H         62.94600000  *  144.39700000  * -43.84300000  *
   998       C         63.43700000  *  146.37600000  * -44.52000000  *
   999       H         62.71200000  *  147.18300000  * -44.39600000  *
  1000       C         64.42700000  *  146.42600000  * -43.34300000  *
  1001       H         65.10200000  *  145.57200000  * -43.40600000  *
  1002       H         65.02800000  *  147.33200000  * -43.44000000  *
  1003       C         63.76500000  *  146.45800000  * -41.95800000  *
  1004       H         63.07700000  *  147.30300000  * -41.91700000  *
  1005       H         63.20100000  *  145.54100000  * -41.79700000  *
  1006       C         64.79700000  *  146.58900000  * -40.83500000  *
  1007       O         65.85200000  *  145.96800000  * -40.84500000  *
  1008       N         64.54000000  *  147.38700000  * -39.82200000  *
  1009       H         65.23000000  *  147.46400000  * -39.08900000  *
  1010       H         63.69700000  *  147.93900000  * -39.79600000  *
  1011       C         64.22400000  *  146.67000000  * -45.81100000  *
  1012       O         64.34300000  *  147.82200000  * -46.21500000  *
  1013       N         64.75300000  *  145.63300000  * -46.46400000  *
  1014       H         64.51300000  *  144.70800000  * -46.13700000  *
  1015       C         65.53200000  *  145.70200000  * -47.70200000  *
  1016       H         66.09300000  *  146.63900000  * -47.72700000  *
  1017       C         66.54900000  *  144.53000000  * -47.72700000  *
  1018       H         66.04600000  *  143.60000000  * -47.47600000  *
  1019       H         66.93600000  *  144.41600000  * -48.73700000  *
  1020       C         67.76500000  *  144.70700000  * -46.82700000  *
  1021       O         68.05100000  *  145.77600000  * -46.31200000  *
  1022       N         68.53400000  *  143.66500000  * -46.59700000  *
  1023       H         69.40700000  *  143.81200000  * -46.11600000  *
  1024       H         68.29300000  *  142.72200000  * -46.88500000  *
  1025       C         64.63400000  *  145.71100000  * -48.96000000  *
  1026       O         65.16200000  *  145.62300000  * -50.06600000  *
  1027       N         63.30000000  *  145.80300000  * -48.83400000  *
  1028       H         62.89500000  *  145.87300000  * -47.90900000  *
  1029       C         62.40600000  *  145.84500000  * -49.97900000  *
  1030       H         62.94700000  *  145.74800000  * -50.91900000  *
  1031       C         61.36900000  *  144.72100000  * -49.88900000  *
  1032       H         60.76900000  *  144.86100000  * -48.99200000  *
  1033       H         60.74400000  *  144.79800000  * -50.77200000  *
  1034       C         62.03600000  *  143.32400000  * -49.85900000  *
  1035       H         62.67100000  *  143.24000000  * -48.98800000  *
  1036       C         61.00200000  *  142.26000000  * -49.77100000  *
  1037       H         60.24600000  *  142.42800000  * -50.53400000  *
  1038       H         61.44700000  *  141.27100000  * -49.89000000  *
  1039       H         60.52000000  *  142.31900000  * -48.79800000  *
  1040       C         62.89500000  *  143.12600000  * -51.08400000  *
  1041       H         63.82900000  *  143.66800000  * -50.95600000  *
  1042       H         63.12900000  *  142.06900000  * -51.20900000  *
  1043       H         62.39300000  *  143.49200000  * -51.96600000  *
  1044       C         61.76300000  *  147.21800000  * -49.95200000  *
  1045       O         61.15000000  *  147.60200000  * -48.96600000  *
  1046       N         61.92400000  *  147.99700000  * -51.01700000  *
  1047       H         62.42200000  *  147.62400000  * -51.81900000  *
  1048       C         61.44500000  *  149.37900000  * -51.07600000  *
  1049       H         61.09000000  *  149.70700000  * -50.10100000  *
  1050       C         62.56200000  *  150.31300000  * -51.52500000  *
  1051       H         62.89200000  *  150.00900000  * -52.51900000  *
  1052       H         62.13800000  *  151.31300000  * -51.59100000  *
  1053       C         63.77300000  *  150.35900000  * -50.59700000  *
  1054       H         64.28200000  *  149.39800000  * -50.60900000  *
  1055       C         64.69400000  *  151.43100000  * -51.15800000  *
  1056       H         64.31800000  *  152.41300000  * -50.88300000  *
  1057       H         65.69600000  *  151.28900000  * -50.77300000  *
  1058       H         64.74300000  *  151.37700000  * -52.24200000  *
  1059       C         63.39600000  *  150.71300000  * -49.15800000  *
  1060       H         62.85600000  *  149.88000000  * -48.71200000  *
  1061       H         64.28700000  *  150.88800000  * -48.56400000  *
  1062       H         62.77000000  *  151.60600000  * -49.13700000  *
  1063       C         60.29600000  *  149.52300000  * -52.04700000  *
  1064       O         60.36200000  *  149.02000000  * -53.15300000  *
  1065       N         59.26800000  *  150.25600000  * -51.67700000  *
  1066       H         59.36500000  *  150.76300000  * -50.80000000  *
  1067       C         58.08300000  *  150.44700000  * -52.50800000  *
  1068       H         58.17300000  *  149.92400000  * -53.45700000  *
  1069       C         56.81900000  *  149.90600000  * -51.78600000  *
  1070       H         55.94300000  *  150.08700000  * -52.41500000  *
  1071       C         56.95000000  *  148.40400000  * -51.54300000  *
  1072       H         57.75300000  *  148.18300000  * -50.83300000  *
  1073       H         56.01300000  *  148.00400000  * -51.15200000  *
  1074       H         57.15800000  *  147.91500000  * -52.48900000  *
  1075       C         56.64700000  *  150.60600000  * -50.43300000  *
  1076       H         57.48200000  *  150.38000000  * -49.77500000  *
  1077       H         56.60500000  *  151.68300000  * -50.57600000  *
  1078       C         55.37000000  *  150.22200000  * -49.68600000  *
  1079       H         55.48900000  *  149.24800000  * -49.22200000  *
  1080       H         55.17000000  *  150.96500000  * -48.91000000  *
  1081       H         54.52900000  *  150.16800000  * -50.38500000  *
  1082       C         57.87200000  *  151.93000000  * -52.81700000  *
  1083       O         58.38200000  *  152.79400000  * -52.10000000  *
  1084       N         57.14900000  *  152.22000000  * -53.89700000  *
  1085       H         56.70500000  *  151.48200000  * -54.43300000  *
  1086       C         56.84100000  *  153.60200000  * -54.22700000  *
  1087       H         57.16800000  *  154.27800000  * -53.43100000  *
  1088       C         57.50400000  *  154.05300000  * -55.54100000  *
  1089       H         57.21800000  *  155.07000000  * -55.80500000  *
  1090       H         58.58200000  *  154.04400000  * -55.38800000  *
  1091       C         57.19300000  *  153.14600000  * -56.70100000  *
  1092       O         56.13500000  *  152.53500000  * -56.76400000  *
  1093       N         58.11500000  *  153.07200000  * -57.64100000  *
  1094       H         57.83300000  *  152.61700000  * -58.48600000  *
  1095       H         58.88600000  *  153.71500000  * -57.62100000  *
  1096       C         55.33100000  *  153.75800000  * -54.32100000  *
  1097       O         54.57600000  *  152.79900000  * -54.11400000  *
  1098       N         54.88500000  *  154.97100000  * -54.62100000  *
  1099       H         55.52100000  *  155.73600000  * -54.79200000  *
  1100       C         53.46400000  *  155.24700000  * -54.72300000  *
  1101       H         52.92700000  *  154.82600000  * -53.87200000  *
  1102       C         53.20900000  *  156.78000000  * -54.75500000  *
  1103       H         52.16900000  *  156.98000000  * -55.02600000  *
  1104       C         53.47800000  *  157.39700000  * -53.41000000  *
  1105       H         54.52100000  *  157.25500000  * -53.13000000  *
[...]
 1005  H   0.83044
 1006  C   1.06539   0.80269   0.73052   0.79572
 1007  O   1.87757   1.39064   1.59119   1.83600
 1008  N   1.52693   1.32570   1.44988   1.29861
 1009  H   0.65793
 1010  H   0.66248
 1011  C   1.08205   0.75190   0.78246   0.82036
 1012  O   1.88373   1.66710   1.31402   1.72421
 1013  N   1.55082   1.50707   1.20121   1.30274
 1014  H   0.66755
 1015  C   1.07350   0.94396   1.09457   0.82172
 1016  H   0.80462
 1017  C   1.07065   1.05187   1.09100   1.16368
 1018  H   0.83074
 1019  H   0.79581
 1020  C   1.05803   0.80321   0.76493   0.75916
 1021  O   1.87605   1.77620   1.41156   1.60900
 1022  N   1.53084   1.30873   1.19591   1.58476
 1023  H   0.66116
 1024  H   0.65687
 1025  C   1.08777   0.78448   0.71955   0.85264
 1026  O   1.87861   1.76513   1.61044   1.38282
 1027  N   1.54097   1.12562   1.66447   1.18331
 1028  H   0.65376
 1029  C   1.06971   0.96851   0.97911   0.97463
 1030  H   0.81169
 1031  C   1.06730   1.06466   0.99795   1.17269
 1032  H   0.83709
 1033  H   0.84826
 1034  C   1.04098   1.01168   0.94618   1.06209
 1035  H   0.85558
 1036  C   1.04921   1.12586   1.11837   1.17073
 1037  H   0.84516
 1038  H   0.84925
 1039  H   0.86555
 1040  C   1.05155   1.14160   1.17154   1.09927
 1041  H   0.84483
 1042  H   0.85780
 1043  H   0.85000
 1044  C   1.07727   0.74856   0.84222   0.75576
 1045  O   1.87202   1.53905   1.79784   1.44141
 1046  N   1.54616   1.54597   1.17359   1.25700
 1047  H   0.64620
 1048  C   1.06429   0.98156   0.83080   1.09927
 1049  H   0.81412
 1050  C   1.06418   1.03329   1.10449   1.11963
 1051  H   0.84589
 1052  H   0.84063
 1053  C   1.04843   0.97703   1.06365   0.96515
 1054  H   0.86547
 1055  C   1.05426   1.13553   1.12444   1.15984
 1056  H   0.84621
 1057  H   0.85119
 1058  H   0.85687
 1059  C   1.05453   1.17243   1.17345   1.05230
 1060  H   0.84070
 1061  H   0.85439
 1062  H   0.84680
 1063  C   1.07340   0.80188   0.74411   0.81520
 1064  O   1.86572   1.83343   1.61982   1.35417
 1065  N   1.53933   1.20107   1.45641   1.29931
 1066  H   0.64447
 1067  C   1.07602   0.88952   1.00651   1.04252
 1068  H   0.80897
 1069  C   1.06438   1.01550   0.99316   1.01956
 1070  H   0.85015
 1071  C   1.05464   1.18097   1.03389   1.17695
 1072  H   0.84361
 1073  H   0.84508
 1074  H   0.85254
 1075  C   1.05401   1.06968   1.12051   1.03127
 1076  H   0.84573
 1077  H   0.86086
 1078  C   1.05247   1.08944   1.15711   1.13156
 1079  H   0.84818
 1080  H   0.87854
 1081  H   0.84675
 1082  C   1.08623   0.74290   0.88790   0.74269
 1083  O   1.88687   1.56812   1.57645   1.55622
 1084  N   1.54300   1.50748   1.14403   1.33786
 1085  H   0.64314
 1086  C   1.06234   0.97262   0.88444   1.03693
 1087  H   0.80472
 1088  C   1.07266   1.18054   1.12904   1.02446
 1089  H   0.80827
 1090  H   0.80562
 1091  C   1.06077   0.76186   0.77074   0.82329
 1092  O   1.88017   1.35499   1.56863   1.83553
 1093  N   1.53417   1.29757   1.49496   1.27262
 1094  H   0.67111
 1095  H   0.66590
 1096  C   1.08285   0.88463   0.75969   0.71364
 1097  O   1.88781   1.65368   1.46808   1.58817
 1098  N   1.54013   1.14540   1.19743   1.67206
 1099  H   0.66333
 1100  C   1.08561   0.83698   1.05854   1.08290
 1101  H   0.80354
 1102  C   1.08431   0.99171   0.86657   0.88974
 1103  H   0.84650
 1104  C   1.05382   1.18386   1.18032   1.05437
 1105  H   0.84144
 1106  H   0.82408
 1107  H   0.82930
 1108  O   1.84876   1.59256   1.82301   1.34544
 1109  H   0.64233
 1110  C   1.07324   0.78894   0.75535   0.82398
 1111  O   1.87785   1.27985   1.68901   1.84880
 1112  N   1.53330   1.19333   1.53456   1.21103
 1113  H   0.66734
 1114  C   1.05709   1.15380   1.13347   0.89300
 1115  H   0.83535
 1116  H   0.83771
 1117  H   0.83536
 1118  H   0.83975
 1119  C   1.10500   0.75516   0.73560   0.91341
 1120  O   1.88311   1.71094   1.59691   1.48281
 1121  N   1.54489   1.42773   1.34556   1.20848
 1122  H   0.65374
 1123  C   1.08094   0.93035   1.08547   0.93119
 1124  H   0.80781
 1125  C   1.07306   1.07888   0.95341   0.98257
 1126  H   0.84436
 1127  C   1.05809   1.18694   1.08422   1.12930
 1128  H   0.84367
 1129  H   0.84854
 1130  H   0.85226
 1131  C   1.05418   1.07562   1.13558   1.01857
 1132  H   0.85383
 1133  H   0.85287
 1134  C   1.04918   1.14382   1.15066   1.09076
 1135  H   0.85024
 1136  H   0.85968
 1137  H   0.84971
 1138  C   1.07230   0.84192   0.73618   0.77712
 1139  O   1.87765   1.89075   1.52164   1.39145
 1140  N   1.54544   1.10231   1.52673   1.33638
 1141  H   0.63080
 1142  C   1.06982   0.84673   1.05310   1.03814
 1143  H   0.81788
 1144  C   1.06008   1.09317   1.04641   1.09546
 1145  H   0.83779
 1146  H   0.84603
 1147  C   1.05105   1.08515   1.04437   1.07820
 1148  H   0.84954
 1149  H   0.84522
 1150  C   1.05937   1.08224   1.05489   1.09812
 1151  H   0.84148
 1152  H   0.83205
 1153  C   1.07896   1.02179   0.99780   1.07448
 1154  H   0.81059
 1155  H   0.83425
 1156  N   1.45935   1.23143   1.22886   1.25633
 1157  H   0.69609
 1158  H   0.69906
 1159  H   0.68583
 1160  C   1.07829   0.77992   0.75068   0.82554
 1161  O   1.88115   1.77228   1.69281   1.29044
 1162  N   1.54487   1.32885   1.42552   1.23091
 1163  H   0.64043
 1164  C   1.07021   0.91857   0.95751   1.02898
 1165  H   0.83196
 1166  C   1.06276   1.10005   1.01929   1.13291
 1167  H   0.83536
 1168  H   0.84484
 1169  C   1.05373   1.07061   0.96103   0.96343
 1170  H   0.85969
 1171  C   1.06224   1.16615   1.13942   1.09234
 1172  H   0.85192
 1173  H   0.84918
 1174  H   0.85271
 1175  C   1.05740   1.18269   1.13696   1.08877
 1176  H   0.85340
 1177  H   0.84832
 1178  H   0.85425
 1179  C   1.08511   0.79160   0.79873   0.75847
 1180  O   1.88082   1.63440   1.59910   1.53801
 1181  N   1.54383   1.36897   1.43757   1.15929
 1182  H   0.64715
 1183  C   1.06763   0.91395   0.92694   1.04962
 1184  H   0.82861
 1185  C   1.05961   1.16296   1.08490   1.15591
 1186  H   0.82007
 1187  H   0.83538
 1188  H   0.82814
 1189  C   1.08864   0.78784   0.78357   0.74685
 1190  O   1.87238   1.84325   1.36182   1.59566
 1191  N   1.54703   1.17156   1.32198   1.49663
 1192  H   0.67331
 1193  C   1.07602   0.87405   1.08126   0.93471
 1194  H   0.81183
 1195  C   1.08027   1.14610   1.18019   1.00628
 1196  H   0.81153
 1197  H   0.83152
 1198  C   1.07276   0.74128   0.70558   0.72167
 1199  O   1.88578   1.83504   1.52099   1.49161
 1200  O   1.87331   1.59247   1.56413   1.82298
 1201  C   1.09214   0.81804   0.79396   0.74790
 1202  O   1.88755   1.28287   1.80600   1.56516
 1203  N   1.56769   1.29405   1.16940   1.54536
 1204  H   0.67996
 1205  C   1.07953   1.01956   0.91914   0.95338
 1206  H   0.83860
 1207  C   1.05568   1.07763   1.20267   0.96287
 1208  H   0.81393
 1209  H   0.81986
 1210  C   1.07472   0.97396   0.97753   0.97006
 1211  C   1.09001   1.04131   1.04134   1.01442
 1212  H   0.83959
 1213  C   1.08862   0.98528   1.06183   1.01055
 1214  H   0.84225
 1215  C   1.08743   1.05975   0.99166   1.03236
 1216  H   0.84773
 1217  C   1.08949   1.03696   1.03618   0.98884
 1218  H   0.83146
 1219  C   1.08725   0.98636   1.06407   1.02368
 1220  H   0.83861
 1221  C   1.09011   0.80305   0.77321   0.76271
 1222  O   1.88551   1.44263   1.55794   1.71311
 1223  N   1.53975   1.41514   1.43908   1.13741
 1224  H   0.68766
 1225  C   1.06835   0.98897   1.06867   0.97967
 1226  H   0.81703
 1227  H   0.80487
 1228  C   1.07960   0.82814   0.77914   0.70422
 1229  O   1.87709   1.84028   1.32383   1.60888
 1230  N   1.55896   1.30138   1.23369   1.44982
 1231  H   0.67417
 1232  C   1.07783   0.89806   1.03368   0.96938
 1233  H   0.83244
 1234  C   1.06794   1.11385   0.94959   1.17400
 1235  H   0.84028
 1236  H   0.82901
 1237  C   1.05182   1.03118   0.96109   1.01122
 1238  H   0.86320
 1239  C   1.05592   1.16818   1.06703   1.16336
 1240  H   0.85896
 1241  H   0.84261
 1242  H   0.85595
 1243  C   1.05571   1.17175   1.18913   1.04638
 1244  H   0.84138
 1245  H   0.84069
 1246  H   0.85759
 1247  C   1.09508   0.85784   0.76643   0.72744
 1248  O   1.88129   1.32421   1.78578   1.59308
 1249  N   1.58215   1.28175   1.23289   1.52149
 1250  H   0.66105
 1251  C   1.06871   0.96479   0.99763   0.95382
 1252  H   0.83592
 1253  C   1.05860   1.13932   1.09721   1.17437
 1254  H   0.84395
 1255  H   0.80963
 1256  H   0.81094
 1257  C   1.07569   0.83413   0.75257   0.78162
 1258  O   1.88397   1.49895   1.59901   1.64922
 1259  N   1.54299   1.31153   1.51232   1.14408
 1260  H   0.67645
 1261  C   1.06251   0.92395   1.14576   1.10584
 1262  H   0.82618
 1263  H   0.82962
 1264  H   0.83892
 1265  H   0.84129
 1266  C   1.10474   0.72495   0.79431   0.87710
 1267  O   1.88387   1.53285   1.36156   1.88309
 1268  N   1.54283   1.48751   1.35125   1.14849
 1269  H   0.67738
 1270  C   1.07280   1.11707   0.96769   0.82285
 1271  H   0.80277
 1272  C   1.05753   1.09004   1.02741   1.15051
 1273  H   0.83879
 1274  H   0.82056
 1275  C   1.06447   0.97755   0.95016   0.96822
 1276  C   1.08292   1.02027   0.99447   1.05957
 1277  H   0.83887
 1278  C   1.08252   1.04646   1.02678   0.99710
 1279  H   0.84399
 1280  C   1.08136   1.00640   1.05595   1.02605
 1281  H   0.84914
 1282  C   1.08080   1.02425   1.00349   1.05461
 1283  H   0.85469
 1284  C   1.08273   1.06030   1.02714   0.99699
 1285  H   0.84062
 1286  C   1.08000   0.76684   0.78612   0.79908
 1287  O   1.88373   1.53967   1.68096   1.53436
 1288  N   1.53626   1.17512   1.34734   1.43081
 1289  H   0.67317
 1290  C   1.05782   1.14255   0.97569   0.99865
 1291  H   0.81536
 1292  H   0.78923
 1293  C   1.07396   0.78804   0.75682   0.80152
 1294  O   1.88021   1.54066   1.38264   1.84146
 1295  N   1.53624   1.41075   1.37790   1.17764
 1296  H   0.65087
 1297  C   1.07418   1.00266   1.19849   0.87801
 1298  H   0.81241
 1299  H   0.79450
 1300  C   1.08213   0.77429   0.74496   0.80738
 1301  O   1.88287   1.52179   1.53266   1.73155
 1302  N   1.56488   1.44496   1.16622   1.26729
 1303  C   1.07064   1.06889   0.87015   1.05634
 1304  H   0.83672
 1305  H   0.84078
 1306  C   1.05716   1.04709   1.13659   1.05892
 1307  H   0.84572
 1308  H   0.80676
 1309  C   1.06099   1.08183   0.98343   1.17231
 1310  H   0.83544
 1311  H   0.81935
 1312  C   1.07350   1.05278   1.00103   0.86824
 1313  H   0.81318
 1314  C   1.08826   0.76374   0.76832   0.82879
 1315  O   1.88393   1.42702   1.43538   1.88342
 1316  N   1.54311   1.40338   1.48378   1.11757
 1317  H   0.64356
 1318  C   1.08222   1.04968   1.11424   0.89108
 1319  H   0.80069
 1320  H   0.78729
 1321  C   1.08832   0.82553   0.73024   0.77835
 1322  O   1.88491   1.70329   1.72961   1.32953
 1323  N   1.55114   1.23243   1.41122   1.34473
 1324  H   0.68840
 1325  C   1.07571   0.85992   1.06404   0.97859
 1326  H   0.82211
 1327  C   1.05961   1.16898   1.07546   0.97633
 1328  H   0.83480
 1329  H   0.83885
 1330  C   1.05817   1.13848   1.07481   1.02397
 1331  H   0.82460
 1332  H   0.87157
 1333  C   1.06375   1.08742   1.09999   0.78143
 1334  H   0.85054
 1335  H   0.81936
 1336  N   1.53282   1.62699   1.28989   1.09341
 1337  H   0.64881
 1338  C   0.97601   0.83629   0.80289   0.79449
 1339  N   1.50146   1.56333   1.25851   1.24811
 1340  H   0.67469
 1341  H   0.62633
 1342  N   1.50407   1.55699   1.35355   1.14116
 1343  H   0.64455
 1344  H   0.63718
 1345  C   1.08258   0.75749   0.77387   0.84380
 1346  O   1.88761   1.48097   1.64711   1.56794
 1347  N   1.54306   1.54499   1.19763   1.24089
 1348  H   0.67352
 1349  C   1.09010   1.00003   1.01015   0.91872
 1350  H   0.79827
 1351  C   1.08563   0.92989   0.92506   0.87571
 1352  H   0.85295
 1353  C   1.05848   1.09884   1.12821   1.20452
 1354  H   0.82525
 1355  H   0.83268
 1356  H   0.83138
 1357  O   1.84264   1.58484   1.64185   1.57072
 1358  H   0.62400
 1359  C   1.07903   0.81049   0.78986   0.75982
 1360  O   1.88677   1.53976   1.79357   1.37341
 1361  N   1.55299   1.32739   1.29664   1.37772
 1362  H   0.65214
 1363  C   1.07393   0.98906   0.92718   0.99336
 1364  H   0.81729
 1365  C   1.05778   1.09549   1.06839   1.08645
 1366  H   0.84123
 1367  H   0.82895
 1368  C   1.06155   0.97138   0.97515   1.05694
 1369  C   1.08270   0.97372   1.07942   0.99737
 1370  H   0.84502
 1371  C   1.08356   1.08302   0.99486   1.00908
 1372  H   0.80361
 1373  C   1.06600   0.82559   0.89616   0.91605
 1374  O   1.84120   1.47048   1.54173   1.69670
 1375  H   0.63889
 1376  C   1.07407   0.99043   1.09219   1.06803
 1377  H   0.84664
 1378  C   1.08154   1.06425   0.99878   0.99689
 1379  H   0.85820
 1380  C   1.08200   0.77641   0.73402   0.82113
 1381  O   1.88474   1.39058   1.55606   1.82942
 1382  N   1.55037   1.20063   1.60165   1.14816
 1383  H   0.66081
 1384  C   1.08721   1.11708   1.03486   0.83742
 1385  H   0.82132
 1386  C   1.08255   0.83223   0.89071   1.00022
 1387  H   0.86798
 1388  C   1.05719   1.09872   1.14112   1.18961
 1389  H   0.83123
 1390  H   0.84543
 1391  H   0.84155
 1392  O   1.84704   1.32388   1.76612   1.66695
 1393  H   0.61657
 1394  C   1.08203   0.82812   0.76378   0.79199
 1395  O   1.88730   1.29176   1.70645   1.67742
 1396  N   1.54292   1.22801   1.27090   1.47585
 1397  H   0.64944
 1398  C   1.07062   0.98390   1.04051   1.07617
 1399  H   0.84415
 1400  H   0.80864
 1401  C   1.07033   0.85079   0.72015   0.75155
 1402  O   1.88496   1.70085   1.45758   1.55946
 1403  N   1.55353   1.14737   1.51368   1.33253
 1404  H   0.67998
 1405  C   1.07059   0.82921   0.98707   1.12858
 1406  H   0.81444
 1407  C   1.05336   1.16407   0.99015   1.05255
 1408  H   0.83936
 1409  H   0.83646
 1410  C   1.05973   1.20542   1.01153   1.13803
 1411  H   0.84286
 1412  H   0.82592
 1413  C   1.06676   0.72270   0.72039   0.72787
 1414  O   1.88753   1.47361   1.82364   1.63729
 1415  O   1.88502   1.51773   1.58616   1.81405
 1416  C   1.08686   0.77112   0.86265   0.75467
 1417  O   1.88733   1.64839   1.65294   1.40936
 1418  N   1.54586   1.31032   1.19191   1.47857
 1419  H   0.65324
 1420  C   1.07213   1.06275   0.88125   1.00745
 1421  H   0.84359
 1422  C   1.05449   1.01867   1.03229   0.97100
 1423  H   0.83630
 1424  C   1.05592   1.17747   1.04876   1.19327
 1425  H   0.84534
 1426  H   0.83579
 1427  H   0.83805
 1428  C   1.05455   1.18134   1.16761   1.06134
 1429  H   0.84068
 1430  H   0.83980
 1431  H   0.85195
 1432  C   1.07575   0.77103   0.73159   0.84222
 1433  O   1.88367   1.36374   1.63740   1.76953
 1434  N   1.53830   1.27323   1.47283   1.21106
 1435  H   0.66887
 1436  C   1.07707   1.00704   1.05461   0.86824
 1437  H   0.82255
 1438  C   1.06068   1.02666   1.01615   0.97688
 1439  H   0.84036
 1440  C   1.05420   1.18428   1.09828   1.12142
 1441  H   0.84084
 1442  H   0.84068
 1443  H   0.85066
 1444  C   1.05733   1.18977   1.16633   1.05237
 1445  H   0.84661
 1446  H   0.83537
 1447  H   0.83892
 1448  C   1.08160   0.80670   0.78648   0.75130
 1449  O   1.88319   1.81140   1.47303   1.46006
 1450  N   1.53602   1.23697   1.43141   1.31668
 1451  H   0.66486
 1452  C   1.07959   0.90433   0.96832   1.14852
 1453  H   0.80512
 1454  C   1.07968   0.93547   0.82464   0.98267
 1455  H   0.86710
 1456  C   1.05747   1.09506   1.13583   1.19633
 1457  H   0.82476
 1458  H   0.82201
 1459  H   0.84121
 1460  O   1.84757   1.47791   1.49394   1.78187
 1461  H   0.64856
 1462  C   1.07066   0.75367   0.82644   0.79808
 1463  O   1.88053   1.50737   1.88268   1.36452
 1464  N   1.53714   1.54999   1.12180   1.29441
 1465  H   0.65702
 1466  C   1.05411   1.16784   0.87309   1.13590
 1467  H   0.83018
 1468  H   0.83664
 1469  H   0.85116
 1470  H   0.82733
 1471  C   1.10849   0.72196   0.77565   0.90303
 1472  O   1.87917   1.50022   1.39718   1.89103
 1473  N   1.54808   1.50771   1.35866   1.13692
 1474  H   0.67063
 1475  C   1.07821   1.08320   1.04093   0.80196
 1476  H   0.80368
 1477  C   1.05901   1.13419   0.99946   1.10159
 1478  H   0.81855
 1479  H   0.82212
 1480  C   1.06592   0.97591   0.99296   1.00554
 1481  C   1.08232   0.99069   1.02462   1.00444
 1482  H   0.83759
 1483  C   1.07635   1.10512   1.04978   1.06620
 1484  H   0.82033
 1485  C   1.07255   0.88636   0.88188   0.87952
 1486  O   1.83869   1.35508   1.61300   1.73277
 1487  H   0.61907
 1488  C   1.07842   0.98872   1.10012   1.09721
 1489  H   0.82155
 1490  C   1.08814   1.07850   0.97886   0.96898
 1491  H   0.83522
 1492  C   1.08085   0.79995   0.76890   0.79200
 1493  O   1.88631   1.81381   1.69952   1.28027
 1494  N   1.53471   1.25587   1.50890   1.18461
 1495  H   0.67099
 1496  C   1.06143   0.92032   1.08960   1.16683
 1497  H   0.83429
 1498  H   0.82972
 1499  H   0.83845
 1500  H   0.82488
 1501  C   1.10803   0.78633   0.88376   0.71618
 1502  O   1.88011   1.43051   1.87065   1.50913
 1503  N   1.55068   1.37511   1.18536   1.44522
 1504  H   0.64440
 1505  C   1.07867   0.96570   0.86325   1.12910
 1506  H   0.81496
 1507  C   1.05975   0.97995   0.99666   1.07634
 1508  H   0.84644
 1509  C   1.05207   1.15818   1.06260   1.17616
 1510  H   0.84440
 1511  H   0.84448
 1512  H   0.84186
 1513  C   1.04784   0.99985   1.12972   1.08503
 1514  H   0.86670
 1515  H   0.85361
 1516  C   1.04905   1.11600   1.12966   1.14932
 1517  H   0.85851
 1518  H   0.85740
 1519  H   0.84119
 1520  C   1.07243   0.85963   0.73796   0.75022
 1521  O   1.87626   1.57605   1.55605   1.67378
 1522  N   1.54217   1.18496   1.41742   1.37465
 1523  H   0.66203
 1524  C   1.07134   0.87896   1.16328   1.10827
 1525  H   0.84315
 1526  H   0.83225
 1527  H   0.83421
 1528  H   0.82769
 1529  C   1.10752   0.84811   0.73330   0.82095
 1530  O   1.88532   1.81644   1.62641   1.36683
 1531  N   1.53778   1.25349   1.40292   1.30523
 1532  H   0.64796
 1533  C   1.05915   0.89141   1.04103   1.02443
 1534  H   0.81934
 1535  C   1.06063   1.03212   1.11497   1.11408
 1536  H   0.82493
 1537  H   0.84747
 1538  C   1.04450   0.99038   0.96307   1.06041
 1539  H   0.87942
 1540  C   1.05446   1.16230   1.06815   1.18058
 1541  H   0.83886
 1542  H   0.84804
 1543  H   0.85376
 1544  C   1.05255   1.12363   1.17252   1.10819
 1545  H   0.85758
 1546  H   0.84714
 1547  H   0.84151
 1548  C   1.07843   0.72969   0.86432   0.77479
 1549  O   1.88173   1.57729   1.45170   1.73576
 1550  N   1.54011   1.57140   1.21322   1.19366
 1551  H   0.66024
 1552  C   1.07165   1.02197   0.93427   0.96027
 1553  H   0.81207
 1554  C   1.05665   1.17025   1.07924   0.99300
 1555  H   0.82467
 1556  H   0.82643
 1557  C   1.05680   1.12993   1.08843   1.03628
 1558  H   0.85357
 1559  H   0.82376
 1560  C   1.06367   1.15812   0.94506   0.90235
 1561  H   0.81564
 1562  H   0.83645
 1563  N   1.52413   1.16123   1.42466   1.39828
 1564  H   0.63937
 1565  C   0.99156   0.79146   0.81260   0.81869
 1566  N   1.51739   1.11701   1.46805   1.48671
 1567  H   0.65521
 1568  H   0.63903
 1569  N   1.50862   1.25117   1.39994   1.41130
 1570  H   0.64165
 1571  H   0.64060
 1572  C   1.08225   0.87363   0.77360   0.74777
 1573  O   1.88842   1.60464   1.59453   1.52027
 1574  N   1.54000   1.17422   1.27251   1.51863
 1575  H   0.65818
 1576  C   1.07419   0.85748   1.08565   1.03746
 1577  H   0.82129
 1578  C   1.06142   1.16446   1.09782   0.98429
 1579  H   0.84250
 1580  H   0.83782
 1581  C   1.04758   1.08149   0.95989   0.94836
 1582  H   0.86922
 1583  C   1.05592   1.17164   1.16288   1.07765
 1584  H   0.85395
 1585  H   0.86103
 1586  H   0.84727
 1587  C   1.05671   1.15732   1.09308   1.15813
 1588  H   0.84989
 1589  H   0.86078
 1590  H   0.84765
 1591  C   1.08316   0.71432   0.76149   0.70262
 1592  O   1.88391   1.46802   1.86966   1.62359
 1593  O   1.88755   1.54760   1.59455   1.80349

 **********************
 *                    *
 * JOB ENDED NORMALLY *
 *                    *
 **********************



 TOTAL JOB TIME:          2964.16 SECONDS

 == MOPAC DONE ==
