 *******************************************************************************
 **                                                                           **
 **                              MOPAC v23.2.2                                **
 **                                                                           **
 *******************************************************************************
 **          Digital Object Identifier (DOI): 10.5281/zenodo.6511958          **
 **    Visit the DOI location for information on how to cite this program.    **
 *******************************************************************************

                              PM7 CALCULATION RESULTS

 *******************************************************************************
 *  CALCULATION DONE: (MAX THREADS = 24)             Thu Jan 22 18:48:29 2026  *
 *  PM7        - The PM7 Hamiltonian to be used
 *
 *
 *
 *                 CHARGE ON SYSTEM = +2
 *
 *
 *
 *  EPS=78.4   - USE ANDREAS KLAMT'S COSMO IMPLICIT SOLVATION MODEL
 *  XYZ        - CARTESIAN COORDINATE SYSTEM TO BE USED
 *  1SCF       - DO 1 SCF AND THEN STOP 
 *  T=         - A TIME OF 172800.0 SECONDS REQUESTED
 *  DUMP=N     - RESTART FILE WRITTEN EVERY 7200.0 SECONDS REQUESTED
 *******************************************************************************
PM7 1SCF XYZ CHARGE=2 EPS=78.4


   ATOM   CHEMICAL          X               Y               Z
  NUMBER   SYMBOL      (ANGSTROMS)     (ANGSTROMS)     (ANGSTROMS)

     1       H         71.69100000  *  165.23700000  * -45.36000000  *
     2       C         70.72700000  *  165.64400000  * -45.02500000  *
     3       O         70.67100000  *  166.69300000  * -44.40000000  *
     4       N         69.64800000  *  164.94600000  * -45.35400000  *
     5       H         69.74300000  *  164.08600000  * -45.86500000  *
     6       C         68.31800000  *  165.37700000  * -44.95100000  *
     7       H         68.30400000  *  166.44500000  * -44.75000000  *
     8       C         67.27900000  *  165.08100000  * -46.05800000  *
     9       H         67.27200000  *  164.02200000  * -46.29800000  *
    10       C         65.89200000  *  165.46600000  * -45.59200000  *
    11       H         65.46400000  *  166.22900000  * -46.24500000  *
    12       H         65.23700000  *  164.60600000  * -45.62700000  *
    13       H         65.87600000  *  165.89500000  * -44.58400000  *
    14       C         67.63700000  *  165.85600000  * -47.31700000  *
    15       H         68.59400000  *  165.52900000  * -47.70800000  *
    16       H         66.87900000  *  165.66900000  * -48.07700000  *
    17       H         67.68800000  *  166.92100000  * -47.10100000  *
    18       C         67.91500000  *  164.66400000  * -43.65700000  *
    19       O         67.55300000  *  165.30600000  * -42.67600000  *
    20       N         67.98400000  *  163.33800000  * -43.65800000  *
    21       H         68.28400000  *  162.85200000  * -44.48600000  *
    22       C         67.62300000  *  162.54400000  * -42.48700000  *
    23       H         67.90600000  *  163.07600000  * -41.58100000  *
    24       C         66.12800000  *  162.23500000  * -42.45900000  *
    25       H         65.92600000  *  161.47400000  * -43.20900000  *
    26       H         65.88500000  *  161.80700000  * -41.48800000  *
    27       C         65.21300000  *  163.39800000  * -42.74000000  *
    28       H         65.33100000  *  164.15700000  * -41.96400000  *
    29       H         65.45900000  *  163.81400000  * -43.69700000  *
    30       C         63.76600000  *  162.97200000  * -42.82400000  *
    31       O         63.44700000  *  162.11400000  * -43.67900000  *
    32       O         62.94800000  *  163.49400000  * -42.03400000  *
    33       C         68.34700000  *  161.22200000  * -42.57700000  *
    34       O         68.73000000  *  160.78800000  * -43.66100000  *
    35       N         68.52400000  *  160.57500000  * -41.43500000  *
    36       H         68.03000000  *  160.89100000  * -40.60600000  *
    37       C         69.17300000  *  159.28200000  * -41.42100000  *
    38       H         69.95100000  *  159.22100000  * -42.17800000  *
    39       C         69.75600000  *  159.01000000  * -40.03200000  *
    40       H         70.21900000  *  159.94300000  * -39.71800000  *
    41       H         68.96300000  *  158.79100000  * -39.31600000  *
    42       C         70.79800000  *  157.89600000  * -39.98300000  *
    43       H         70.31100000  *  156.94100000  * -40.17400000  *
    44       H         71.53800000  *  158.07300000  * -40.76900000  *
    45       C         71.50100000  *  157.83200000  * -38.61800000  *
    46       H         70.74900000  *  157.59000000  * -37.86000000  *
    47       H         72.23100000  *  157.01800000  * -38.63800000  *
    48       C         72.18600000  *  159.16200000  * -38.26900000  *
    49       H         72.83200000  *  159.42500000  * -39.10900000  *
    50       H         71.41200000  *  159.93100000  * -38.15600000  *
    51       N         73.00000000  *  159.10500000  * -37.02500000  *
    52       H         73.70000000  *  158.37000000  * -37.07400000  *
    53       H         73.43800000  *  159.98800000  * -36.79300000  *
    54       H         72.39100000  *  158.85400000  * -36.25100000  *
    55       C         68.06200000  *  158.28700000  * -41.74800000  *
    56       O         67.16300000  *  158.08100000  * -40.94600000  *
    57       N         68.04900000  *  157.72000000  * -42.95900000  *
    58       H         68.85800000  *  157.86200000  * -43.54500000  *
    59       C         67.03800000  *  156.73200000  * -43.39800000  *
    60       H         66.05800000  *  157.21300000  * -43.39300000  *
    61       C         67.31900000  *  156.22700000  * -44.83500000  *
    62       H         68.39400000  *  156.11500000  * -44.96100000  *
    63       C         66.66600000  *  154.86900000  * -45.14100000  *
    64       H         65.59100000  *  154.92000000  * -44.96500000  *
    65       H         66.84300000  *  154.60300000  * -46.17500000  *
    66       H         67.10000000  *  154.07400000  * -44.53600000  *
    67       C         66.80800000  *  157.27100000  * -45.84000000  *
    68       H         65.71600000  *  157.27900000  * -45.83900000  *
    69       H         67.14500000  *  158.24100000  * -45.49200000  *
    70       C         67.30500000  *  157.07000000  * -47.28000000  *
    71       H         66.86800000  *  156.17600000  * -47.71900000  *
    72       H         67.01000000  *  157.92300000  * -47.88800000  *
    73       H         68.38900000  *  156.98700000  * -47.29500000  *
    74       C         66.94800000  *  155.56700000  * -42.41600000  *
    75       O         65.85800000  *  155.20600000  * -41.96700000  *
    76       N         68.09500000  *  154.96600000  * -42.10500000  *
    77       H         68.96500000  *  155.32200000  * -42.48500000  *
    78       C         68.13700000  *  153.74700000  * -41.31800000  *
    79       H         67.58700000  *  153.90500000  * -40.38900000  *
    80       H         67.65200000  *  152.94400000  * -41.87400000  *
    81       C         69.54400000  *  153.29700000  * -40.96700000  *
    82       O         70.55200000  *  153.76100000  * -41.50700000  *
    83       N         69.57500000  *  152.35100000  * -40.04200000  *
    84       H         68.69200000  *  152.00100000  * -39.69700000  *
    85       C         70.78000000  *  151.79400000  * -39.45100000  *
    86       H         71.62000000  *  152.46200000  * -39.64300000  *
    87       C         70.56900000  *  151.70300000  * -37.93000000  *
    88       H         69.71000000  *  151.06500000  * -37.71600000  *
    89       H         71.45700000  *  151.26900000  * -37.48700000  *
    90       C         70.35700000  *  153.08900000  * -37.29300000  *
    91       H         71.21000000  *  153.72400000  * -37.55000000  *
    92       H         69.46200000  *  153.55400000  * -37.71200000  *
    93       C         70.20100000  *  153.01500000  * -35.76600000  *
    94       O         69.32100000  *  152.27300000  * -35.27200000  *
    95       O         70.92800000  *  153.73800000  * -35.04700000  *
    96       C         71.05900000  *  150.44900000  * -40.13600000  *
    97       O         70.38500000  *  149.44900000  * -39.88100000  *
    98       N         71.94700000  *  150.47700000  * -41.13500000  *
    99       H         72.52600000  *  151.29900000  * -41.25300000  *
   100       C         71.99800000  *  149.47200000  * -42.20000000  *
   101       H         70.98200000  *  149.15800000  * -42.44400000  *
   102       H         72.41900000  *  149.94400000  * -43.08700000  *
   103       C         72.81900000  *  148.21600000  * -41.89600000  *
   104       O         73.30100000  *  147.98900000  * -40.79000000  *
   105       N         73.00200000  *  147.39400000  * -42.93000000  *
   106       H         72.53000000  *  147.61200000  * -43.79800000  *
   107       C         73.79700000  *  146.14800000  * -42.93700000  *
   108       H         73.57100000  *  145.57200000  * -42.03900000  *
   109       C         73.41200000  *  145.30600000  * -44.16500000  *
   110       H         74.17200000  *  144.54900000  * -44.36000000  *
   111       C         72.07600000  *  144.61100000  * -43.94700000  *
   112       H         71.29000000  *  145.35000000  * -43.79000000  *
   113       H         71.84300000  *  144.00700000  * -44.82300000  *
   114       H         72.16200000  *  143.95400000  * -43.08100000  *
   115       O         73.28500000  *  146.15300000  * -45.28300000  *
   116       H         72.92300000  *  145.61600000  * -46.02800000  *
   117       C         75.31400000  *  146.35400000  * -42.96900000  *
   118       O         76.03500000  *  145.51200000  * -42.44100000  *
   119       N         75.78800000  *  147.46300000  * -43.55200000  *
   120       H         75.10500000  *  148.05200000  * -43.99900000  *
   121       C         77.21600000  *  147.75600000  * -43.79900000  *
   122       H         77.83500000  *  147.08100000  * -43.20500000  *
   123       C         77.53400000  *  147.50200000  * -45.28600000  *
   124       H         76.90200000  *  148.13800000  * -45.90700000  *
   125       H         78.57000000  *  147.78100000  * -45.48000000  *
   126       C         77.38200000  *  146.06200000  * -45.71800000  *
   127       C         78.39100000  *  145.14400000  * -45.38200000  *
   128       H         79.27800000  *  145.47800000  * -44.85700000  *
   129       C         78.23800000  *  143.78700000  * -45.70300000  *
   130       H         79.01400000  *  143.09300000  * -45.42300000  *
   131       C         77.06900000  *  143.34300000  * -46.35900000  *
   132       O         76.88800000  *  142.02200000  * -46.60400000  *
   133       H         77.51900000  *  141.49900000  * -46.07600000  *
   134       C         76.07500000  *  144.27000000  * -46.73400000  *
   135       H         75.17800000  *  143.93100000  * -47.23000000  *
   136       C         76.23900000  *  145.63200000  * -46.41900000  *
   137       H         75.46700000  *  146.33900000  * -46.69000000  *
   138       C         77.64600000  *  149.18500000  * -43.41800000  *
   139       O         78.77100000  *  149.58600000  * -43.71400000  *
   140       N         76.77100000  *  149.96900000  * -42.78400000  *
   141       H         75.88000000  *  149.58800000  * -42.50500000  *
   142       C         77.00600000  *  151.38000000  * -42.46900000  *
   143       H         77.56700000  *  151.46000000  * -41.54100000  *
   144       H         77.60500000  *  151.82600000  * -43.25300000  *
   145       C         75.70100000  *  152.16400000  * -42.32000000  *
   146       O         74.64500000  *  151.56600000  * -42.09100000  *
   147       N         75.75500000  *  153.49500000  * -42.44900000  *
   148       H         76.58800000  *  153.89400000  * -42.85900000  *
   149       C         74.59200000  *  154.32600000  * -42.21200000  *
   150       H         73.82600000  *  153.78000000  * -41.65800000  *
   151       C         74.95900000  *  155.54800000  * -41.37000000  *
   152       H         75.70700000  *  156.13900000  * -41.89300000  *
   153       C         73.73100000  *  156.40900000  * -41.13300000  *
   154       H         72.94300000  *  155.80300000  * -40.68200000  *
   155       H         73.98600000  *  157.21200000  * -40.45000000  *
   156       H         73.36800000  *  156.84900000  * -42.06500000  *
   157       C         75.54500000  *  155.09600000  * -40.05300000  *
   158       H         76.46000000  *  154.52800000  * -40.19800000  *
   159       H         75.77700000  *  155.95300000  * -39.42300000  *
   160       H         74.80500000  *  154.48400000  * -39.53200000  *
   161       C         74.01900000  *  154.79200000  * -43.53700000  *
   162       O         74.76100000  *  155.18400000  * -44.43700000  *
   163       N         72.69700000  *  154.65300000  * -43.67300000  *
   164       H         72.16900000  *  154.31800000  * -42.87300000  *
   165       C         71.91300000  *  155.09500000  * -44.83100000  *
   166       H         72.56900000  *  155.15100000  * -45.69700000  *
   167       C         70.76500000  *  154.11200000  * -45.16000000  *
   168       H         69.93400000  *  154.28400000  * -44.47700000  *
   169       C         70.27100000  *  154.35400000  * -46.59200000  *
   170       H         71.06200000  *  154.13200000  * -47.30700000  *
   171       H         69.41400000  *  153.71100000  * -46.79900000  *
   172       H         69.96400000  *  155.39000000  * -46.71600000  *
   173       C         71.16000000  *  152.63600000  * -45.02200000  *
   174       H         72.06000000  *  152.43300000  * -45.59500000  *
   175       H         71.33400000  *  152.39400000  * -43.97300000  *
   176       H         70.34800000  *  152.00300000  * -45.38300000  *
   177       C         71.34400000  *  156.48300000  * -44.54400000  *
   178       O         70.60800000  *  156.63500000  * -43.56500000  *
   179       N         71.62500000  *  157.49000000  * -45.37400000  *
   180       H         72.23900000  *  157.32200000  * -46.16900000  *
   181       C         71.01800000  *  158.79600000  * -45.21900000  *
   182       H         70.37900000  *  158.84300000  * -44.33800000  *
   183       C         72.10000000  *  159.86100000  * -45.06900000  *
   184       H         72.79900000  *  159.78100000  * -45.90500000  *
   185       H         71.63400000  *  160.84400000  * -45.14300000  *
   186       C         72.87100000  *  159.84300000  * -43.76800000  *
   187       C         72.34700000  *  160.43100000  * -42.61900000  *
   188       H         71.37700000  *  160.90600000  * -42.66800000  *
   189       C         73.06400000  *  160.45200000  * -41.42500000  *
   190       H         72.63300000  *  160.94600000  * -40.56800000  *
   191       C         74.33000000  *  159.87400000  * -41.37100000  *
   192       O         75.04700000  *  159.90100000  * -40.18700000  *
   193       H         74.69700000  *  160.54100000  * -39.56800000  *
   194       C         74.87500000  *  159.27800000  * -42.50300000  *
   195       H         75.78500000  *  158.71900000  * -42.41900000  *
   196       C         74.14000000  *  159.26700000  * -43.69600000  *
   197       H         74.51800000  *  158.73300000  * -44.56500000  *
   198       C         70.16700000  *  159.17400000  * -46.42900000  *
   199       O         70.41800000  *  158.72400000  * -47.55600000  *
   200       N         69.03200000  *  159.83800000  * -46.21300000  *
   201       H         68.84400000  *  160.14400000  * -45.26500000  *
   202       C         68.29400000  *  160.51200000  * -47.28200000  *
   203       H         68.28700000  *  159.90800000  * -48.19100000  *
   204       C         66.84800000  *  160.83300000  * -46.85000000  *
   205       H         66.33800000  *  159.91500000  * -46.57400000  *
   206       H         66.86200000  *  161.48700000  * -45.97700000  *
   207       C         66.03000000  *  161.49200000  * -47.97200000  *
   208       H         66.49100000  *  162.43800000  * -48.26000000  *
   209       H         66.01300000  *  160.82900000  * -48.83900000  *
   210       C         64.59100000  *  161.75400000  * -47.50000000  *
   211       H         64.14700000  *  160.81700000  * -47.15800000  *
   212       H         64.61300000  *  162.45700000  * -46.66600000  *
   213       C         63.73900000  *  162.33000000  * -48.63900000  *
   214       H         64.24300000  *  163.21400000  * -49.04200000  *
   215       H         63.67800000  *  161.58100000  * -49.43700000  *
   216       N         62.37400000  *  162.69600000  * -48.17600000  *
   217       H         62.40700000  *  163.40800000  * -47.46000000  *
   218       H         61.81500000  *  163.06400000  * -48.93400000  *
   219       H         61.88500000  *  161.90000000  * -47.79200000  *
   220       C         69.09600000  *  161.76900000  * -47.51100000  *
   221       O         69.32400000  *  162.50400000  * -46.55400000  *
   222       N         69.55500000  *  162.00600000  * -48.72500000  *
   223       H         69.34400000  *  161.34200000  * -49.46700000  *
   224       C         70.34900000  *  163.18200000  * -49.01700000  *
   225       H         70.22500000  *  163.93500000  * -48.24000000  *
   226       C         71.81400000  *  162.79200000  * -49.07000000  *
   227       H         71.97800000  *  162.06700000  * -49.86400000  *
   228       H         72.42900000  *  163.67700000  * -49.23900000  *
   229       H         72.10500000  *  162.33200000  * -48.12600000  *
   230       C         69.94400000  *  163.83800000  * -50.32200000  *
   231       O         69.22100000  *  163.25100000  * -51.12800000  *
   232       N         70.40700000  *  165.06400000  * -50.52400000  *
   233       H         70.93200000  *  165.53000000  * -49.79600000  *
   234       C         70.10800000  *  165.77900000  * -51.74600000  *
   235       H         69.54100000  *  165.15900000  * -52.44400000  *
   236       H         69.52200000  *  166.69100000  * -51.53000000  *
   237       H         71.05900000  *  166.04700000  * -52.23900000  *
   238       H         68.08600000  *  164.80700000  * -56.55000000  *
   239       C         68.21200000  *  164.39600000  * -55.53600000  *
   240       O         69.28600000  *  164.50800000  * -54.94200000  *
   241       N         67.13500000  *  163.82300000  * -55.01100000  *
   242       H         66.34000000  *  163.66800000  * -55.61500000  *
   243       C         67.13600000  *  163.21200000  * -53.68800000  *
   244       H         67.86300000  *  163.70700000  * -53.05000000  *
   245       C         65.75500000  *  163.32300000  * -53.02900000  *
   246       H         64.97700000  *  163.06900000  * -53.75000000  *
   247       C         65.64800000  *  162.36600000  * -51.85200000  *
   248       H         66.47200000  *  162.51800000  * -51.15200000  *
   249       H         64.69700000  *  162.53800000  * -51.34700000  *
   250       H         65.65200000  *  161.33900000  * -52.20000000  *
   251       C         65.54000000  *  164.75000000  * -52.56600000  *
   252       H         65.62600000  *  165.42400000  * -53.41600000  *
   253       H         64.53500000  *  164.85100000  * -52.15900000  *
   254       H         66.28400000  *  165.00300000  * -51.81000000  *
   255       C         67.52600000  *  161.76000000  * -53.84700000  *
   256       O         66.97900000  *  161.02800000  * -54.68200000  *
   257       N         68.49600000  *  161.34900000  * -53.04800000  *
   258       H         68.91100000  *  161.99700000  * -52.39100000  *
   259       C         69.01100000  *  159.99200000  * -53.10200000  *
   260       H         68.34600000  *  159.34100000  * -53.67900000  *
   261       C         70.37400000  *  159.97400000  * -53.81600000  *
   262       H         70.77500000  *  158.96500000  * -53.87500000  *
   263       C         70.21400000  *  160.50700000  * -55.21300000  *
   264       H         69.95700000  *  161.56600000  * -55.19000000  *
   265       H         71.15100000  *  160.39100000  * -55.75600000  *
   266       H         69.44200000  *  159.95000000  * -55.73600000  *
   267       C         71.37900000  *  160.85000000  * -53.05700000  *
   268       H         71.56500000  *  160.44500000  * -52.06400000  *
   269       H         72.31500000  *  160.84900000  * -53.61300000  *
   270       H         71.03600000  *  161.88400000  * -52.98400000  *
   271       C         69.19200000  *  159.37200000  * -51.72900000  *
   272       O         69.02000000  *  160.03600000  * -50.68600000  *
   273       N         69.37900000  *  158.05800000  * -51.70300000  *
   274       H         69.45500000  *  157.56400000  * -52.58700000  *
   275       C         69.75900000  *  157.32500000  * -50.51000000  *
   276       H         69.48200000  *  157.89200000  * -49.62300000  *
   277       C         69.00200000  *  156.00500000  * -50.46200000  *
   278       H         69.23200000  *  155.42100000  * -51.35000000  *
   279       H         69.29300000  *  155.44300000  * -49.57400000  *
   280       H         67.93200000  *  156.20600000  * -50.42200000  *
   281       C         71.27600000  *  157.14400000  * -50.53900000  *
   282       O         71.80900000  *  156.46700000  * -51.42500000  *
   283       N         71.97000000  *  157.79100000  * -49.60300000  *
   284       H         71.44500000  *  158.28300000  * -48.88900000  *
   285       C         73.41300000  *  157.73400000  * -49.53500000  *
   286       H         73.80300000  *  157.43200000  * -50.50200000  *
   287       C         73.96100000  *  159.11400000  * -49.18200000  *
   288       H         73.49200000  *  159.84000000  * -49.85100000  *
   289       H         73.62800000  *  159.35800000  * -48.16900000  *
   290       C         75.47300000  *  159.31600000  * -49.26600000  *
   291       H         75.96900000  *  158.63700000  * -48.57100000  *
   292       C         75.94900000  *  159.02000000  * -50.68400000  *
   293       H         75.44100000  *  159.71800000  * -51.34800000  *
   294       H         77.02400000  *  159.18800000  * -50.76300000  *
   295       H         75.74700000  *  157.98700000  * -50.96800000  *
   296       C         75.80400000  *  160.74000000  * -48.87900000  *
   297       H         75.43700000  *  160.94600000  * -47.87600000  *
   298       H         76.88200000  *  160.87900000  * -48.92200000  *
   299       H         75.32000000  *  161.42900000  * -49.57600000  *
   300       C         73.82100000  *  156.71600000  * -48.48500000  *
   301       O         73.39600000  *  156.78100000  * -47.33400000  *
   302       N         74.64900000  *  155.75300000  * -48.88200000  *
   303       H         74.89600000  *  155.73300000  * -49.87000000  *
   304       C         75.12800000  *  154.63900000  * -48.05300000  *
   305       H         74.61000000  *  154.63200000  * -47.09200000  *
   306       C         74.82700000  *  153.33000000  * -48.81900000  *
   307       H         74.28700000  *  153.56900000  * -49.73700000  *
   308       H         75.75600000  *  152.84800000  * -49.12300000  *
   309       C         73.97000000  *  152.30100000  * -48.07600000  *
   310       H         73.15600000  *  152.80500000  * -47.55800000  *
   311       H         73.53300000  *  151.66100000  * -48.84100000  *
   312       C         74.78700000  *  151.43800000  * -47.09600000  *
   313       H         75.74500000  *  151.18000000  * -47.55100000  *
   314       H         74.99600000  *  152.02600000  * -46.19900000  *
   315       C         74.07400000  *  150.13200000  * -46.69700000  *
   316       H         74.70700000  *  149.61000000  * -45.97300000  *
   317       H         73.13300000  *  150.38400000  * -46.19400000  *
   318       N         73.80900000  *  149.24600000  * -47.87000000  *
   319       H         74.63400000  *  149.09200000  * -48.43700000  *
   320       H         73.45100000  *  148.31700000  * -47.61100000  *
   321       H         73.07100000  *  149.63500000  * -48.45000000  *
   322       C         76.62200000  *  154.83700000  * -47.79400000  *
   323       O         77.41300000  *  154.65700000  * -48.71100000  *
   324       N         77.01700000  *  155.22600000  * -46.58100000  *
   325       H         76.29800000  *  155.26800000  * -45.86500000  *
   326       C         78.42200000  *  155.28900000  * -46.15900000  *
   327       H         79.06600000  *  155.59300000  * -46.98900000  *
   328       C         78.56700000  *  156.26000000  * -44.97900000  *
   329       H         78.02700000  *  155.87500000  * -44.10900000  *
   330       H         79.62500000  *  156.33900000  * -44.73000000  *
   331       C         78.01500000  *  157.64300000  * -45.34000000  *
   332       H         78.45100000  *  157.95800000  * -46.27300000  *
   333       H         76.93600000  *  157.57500000  * -45.50000000  *
   334       C         78.25100000  *  158.72500000  * -44.27900000  *
   335       H         77.97800000  *  159.68000000  * -44.73200000  *
   336       H         77.56000000  *  158.53300000  * -43.46900000  *
   337       C         79.67700000  *  158.85000000  * -43.70900000  *
   338       H         80.38400000  *  158.36300000  * -44.39700000  *
   339       H         79.95000000  *  159.91100000  * -43.68600000  *
   340       N         79.78800000  *  158.26900000  * -42.33500000  *
   341       H         79.63700000  *  157.26100000  * -42.37000000  *
   342       H         80.69600000  *  158.42600000  * -41.93200000  *
   343       H         79.10400000  *  158.64600000  * -41.70100000  *
   344       C         78.82300000  *  153.89100000  * -45.72900000  *
   345       O         78.09100000  *  153.31500000  * -44.93700000  *
   346       N         79.90700000  *  153.32000000  * -46.24700000  *
   347       H         80.40500000  *  153.76400000  * -47.01000000  *
   348       C         80.34300000  *  152.02200000  * -45.76800000  *
   349       H         79.49500000  *  151.49800000  * -45.35900000  *
   350       C         80.94400000  *  151.18600000  * -46.89500000  *
   351       H         81.78600000  *  151.78200000  * -47.16900000  *
   352       C         81.42400000  *  149.85200000  * -46.34500000  *
   353       H         80.65600000  *  149.35200000  * -45.75200000  *
   354       H         81.67900000  *  149.19900000  * -47.17900000  *
   355       H         82.34500000  *  149.95700000  * -45.76100000  *
   356       C         79.89700000  *  150.97600000  * -47.99700000  *
   357       H         79.60200000  *  151.87000000  * -48.50000000  *
   358       H         80.28300000  *  150.30500000  * -48.75000000  *
   359       C         78.59100000  *  150.36100000  * -47.52600000  *
   360       H         78.17700000  *  150.90100000  * -46.69000000  *
   361       H         77.89400000  *  150.33700000  * -48.36300000  *
   362       H         78.77100000  *  149.33300000  * -47.20900000  *
   363       C         81.33300000  *  152.07100000  * -44.61400000  *
   364       O         82.16700000  *  152.98000000  * -44.51900000  *
   365       N         81.21100000  *  151.07100000  * -43.74300000  *
   366       H         80.50300000  *  150.36100000  * -43.92800000  *
   367       C         82.04400000  *  150.90200000  * -42.55200000  *
   368       H         81.47500000  *  151.18100000  * -41.66300000  *
   369       H         82.35800000  *  149.86100000  * -42.45900000  *
   370       H         82.94700000  *  151.51400000  * -42.62000000  *
   371       H         81.25700000  *  144.04600000  * -57.89900000  *
   372       C         80.50000000  *  144.84100000  * -57.88800000  *
   373       O         79.71500000  *  144.99000000  * -58.82400000  *
   374       N         80.49900000  *  145.60300000  * -56.79700000  *
   375       H         81.28000000  *  145.52500000  * -56.16600000  *
   376       C         79.57000000  *  146.70600000  * -56.61200000  *
   377       H         78.57500000  *  146.34400000  * -56.42300000  *
   378       C         80.00500000  *  147.61000000  * -55.44200000  *
   379       H         80.89800000  *  148.18000000  * -55.68500000  *
   380       C         78.90600000  *  148.60800000  * -55.12500000  *
   381       H         77.92000000  *  148.14100000  * -55.17600000  *
   382       H         79.04500000  *  148.98700000  * -54.11600000  *
   383       H         78.93800000  *  149.43600000  * -55.83300000  *
   384       C         80.32100000  *  146.76200000  * -54.20900000  *
   385       H         81.19200000  *  146.13400000  * -54.40600000  *
   386       H         80.59400000  *  147.42200000  * -53.38900000  *
   387       C         79.18400000  *  145.87900000  * -53.76500000  *
   388       H         78.77800000  *  145.31100000  * -54.59400000  *
   389       H         79.50900000  *  145.12200000  * -53.06500000  *
   390       H         78.38800000  *  146.48300000  * -53.33500000  *
   391       C         79.54300000  *  147.54500000  * -57.87900000  *
   392       O         78.48200000  *  147.77900000  * -58.45100000  *
   393       N         80.72300000  *  147.98900000  * -58.30900000  *
   394       H         81.55800000  *  147.70100000  * -57.81200000  *
   395       C         80.85900000  *  148.80400000  * -59.51100000  *
   396       H         80.33900000  *  149.74600000  * -59.38600000  *
   397       H         81.92800000  *  148.98500000  * -59.72900000  *
   398       H         80.37800000  *  148.32200000  * -60.38100000  *
   399       H         78.96400000  *  146.08700000  * -61.65600000  *
   400       C         77.87300000  *  146.08700000  * -61.51600000  *
   401       O         77.11500000  *  145.89500000  * -62.46400000  *
   402       N         77.44600000  *  146.31800000  * -60.28000000  *
   403       H         78.13400000  *  146.42500000  * -59.54900000  *
   404       C         76.02800000  *  146.35200000  * -59.94500000  *
   405       H         75.53300000  *  145.47600000  * -60.35900000  *
   406       C         75.84100000  *  146.37400000  * -58.43100000  *
   407       H         76.20500000  *  147.30400000  * -58.01800000  *
   408       H         74.76300000  *  146.35700000  * -58.24200000  *
   409       C         76.47200000  *  145.22200000  * -57.65900000  *
   410       H         77.55000000  *  145.23900000  * -57.74900000  *
   411       C         76.08000000  *  145.34100000  * -56.19200000  *
   412       H         74.99900000  *  145.23000000  * -56.07700000  *
   413       H         76.57300000  *  144.55300000  * -55.62900000  *
   414       H         76.38500000  *  146.30900000  * -55.80100000  *
   415       C         75.99600000  *  143.89000000  * -58.23600000  *
   416       H         76.41500000  *  143.73000000  * -59.22900000  *
   417       H         76.32800000  *  143.07800000  * -57.59100000  *
   418       H         74.90500000  *  143.87400000  * -58.30500000  *
   419       C         75.32200000  *  147.55900000  * -60.54800000  *
   420       O         74.09500000  *  147.56800000  * -60.66200000  *
   421       N         76.08400000  *  148.63100000  * -60.82900000  *
   422       H         77.08200000  *  148.53500000  * -60.67700000  *
   423       C         75.60100000  *  149.83300000  * -61.53400000  *
   424       H         74.83700000  *  150.33500000  * -60.94100000  *
   425       H         76.43800000  *  150.53300000  * -61.75900000  *
   426       H         75.13800000  *  149.54900000  * -62.49200000  *
   427       H         62.79000000  *  145.77200000  * -59.27600000  *
   428       C         63.71000000  *  145.72000000  * -58.67500000  *
   429       O         63.77900000  *  145.02200000  * -57.66400000  *
   430       N         64.72400000  *  146.45200000  * -59.11400000  *
   431       H         64.63800000  *  147.05100000  * -59.92700000  *
   432       C         65.97100000  *  146.53500000  * -58.38100000  *
   433       H         65.88400000  *  146.09200000  * -57.38600000  *
   434       C         67.11600000  *  145.87700000  * -59.11400000  *
   435       H         67.33600000  *  146.42600000  * -60.03000000  *
   436       C         68.35100000  *  145.87800000  * -58.21400000  *
   437       H         68.14700000  *  145.31400000  * -57.31800000  *
   438       H         69.21000000  *  145.44500000  * -58.72400000  *
   439       H         68.64100000  *  146.89000000  * -57.94500000  *
   440       C         66.72800000  *  144.44400000  * -59.47800000  *
   441       H         66.54900000  *  143.87300000  * -58.56400000  *
   442       H         65.81500000  *  144.42400000  * -60.06800000  *
   443       C         67.77400000  *  143.72700000  * -60.29600000  *
   444       H         68.68300000  *  143.57700000  * -59.72200000  *
   445       H         67.37700000  *  142.75300000  * -60.59800000  *
   446       H         68.02300000  *  144.31300000  * -61.18000000  *
   447       C         66.29500000  *  148.01000000  * -58.22000000  *
   448       O         66.21200000  *  148.78000000  * -59.18400000  *
   449       N         66.54900000  *  148.44100000  * -56.98200000  *
   450       H         66.61900000  *  147.76100000  * -56.22900000  *
   451       C         66.88800000  *  149.83900000  * -56.68800000  *
   452       H         66.07400000  *  150.48200000  * -57.02400000  *
   453       C         67.08900000  *  150.05700000  * -55.18300000  *
   454       H         67.88500000  *  149.40200000  * -54.82600000  *
   455       C         67.46300000  *  151.50600000  * -54.85300000  *
   456       H         66.64800000  *  152.18100000  * -55.11000000  *
   457       H         67.67200000  *  151.57900000  * -53.78700000  *
   458       H         68.35600000  *  151.80900000  * -55.39400000  *
   459       C         65.80500000  *  149.73600000  * -54.41700000  *
   460       H         65.54100000  *  148.68700000  * -54.52100000  *
   461       H         65.97600000  *  149.93600000  * -53.36600000  *
   462       H         64.98500000  *  150.35100000  * -54.78000000  *
   463       C         68.15000000  *  150.21300000  * -57.45700000  *
   464       O         69.17700000  *  149.54000000  * -57.33600000  *
   465       N         68.08000000  *  151.28300000  * -58.25100000  *
   466       H         67.22500000  *  151.80400000  * -58.24500000  *
   467       C         69.18900000  *  151.69800000  * -59.08000000  *
   468       H         69.52500000  *  150.81900000  * -59.63900000  *
   469       C         68.73700000  *  152.76800000  * -60.08300000  *
   470       H         67.83400000  *  152.41100000  * -60.57900000  *
   471       H         68.47700000  *  153.68100000  * -59.53700000  *
   472       C         69.79100000  *  153.06900000  * -61.13100000  *
   473       H         70.72100000  *  153.35000000  * -60.64200000  *
   474       H         69.97400000  *  152.16800000  * -61.71600000  *
   475       C         69.35100000  *  154.17900000  * -62.08100000  *
   476       H         68.50200000  *  153.81400000  * -62.66100000  *
   477       H         69.02300000  *  155.05600000  * -61.52200000  *
   478       C         70.49800000  *  154.55900000  * -63.02400000  *
   479       H         71.33900000  *  154.89000000  * -62.40800000  *
   480       H         70.81900000  *  153.66100000  * -63.56600000  *
   481       N         70.11800000  *  155.62600000  * -63.99700000  *
   482       H         69.74700000  *  156.41600000  * -63.48300000  *
   483       H         70.92600000  *  155.93300000  * -64.52500000  *
   484       H         69.41500000  *  155.27800000  * -64.63600000  *
   485       C         70.36000000  *  152.21400000  * -58.25300000  *
   486       O         70.19400000  *  153.07400000  * -57.38700000  *
   487       N         71.53700000  *  151.64500000  * -58.50700000  *
   488       H         71.59600000  *  150.90400000  * -59.18600000  *
   489       C         72.75000000  *  152.07400000  * -57.83600000  *
   490       H         72.53800000  *  152.52600000  * -56.87100000  *
   491       C         73.72700000  *  150.91100000  * -57.67000000  *
   492       H         73.31500000  *  150.22100000  * -56.93700000  *
   493       H         73.77900000  *  150.36900000  * -58.62000000  *
   494       C         75.16700000  *  151.27300000  * -57.28800000  *
   495       H         75.65500000  *  151.80300000  * -58.10000000  *
   496       C         75.18300000  *  152.16500000  * -56.05900000  *
   497       H         74.60800000  *  151.72100000  * -55.25200000  *
   498       H         76.21000000  *  152.29600000  * -55.73500000  *
   499       H         74.78900000  *  153.14000000  * -56.31200000  *
   500       C         75.93300000  *  149.99400000  * -57.01300000  *
   501       H         75.98300000  *  149.42100000  * -57.93300000  *
   502       H         76.94600000  *  150.24200000  * -56.71200000  *
   503       H         75.43500000  *  149.41000000  * -56.23200000  *
   504       C         73.31900000  *  153.11300000  * -58.79500000  *
   505       O         73.76900000  *  152.77900000  * -59.89700000  *
   506       N         73.26700000  *  154.36900000  * -58.37800000  *
   507       H         72.92600000  *  154.57000000  * -57.44900000  *
   508       C         73.73400000  *  155.46600000  * -59.19700000  *
   509       H         73.47500000  *  155.26500000  * -60.23600000  *
   510       C         73.02500000  *  156.74200000  * -58.76000000  *
   511       H         73.45000000  *  157.06300000  * -57.80900000  *
   512       H         73.23600000  *  157.53300000  * -59.48700000  *
   513       C         71.51300000  *  156.60300000  * -58.58700000  *
   514       H         71.27400000  *  155.80900000  * -57.88500000  *
   515       C         70.97400000  *  157.88000000  * -58.01900000  *
   516       H         71.37000000  *  158.74600000  * -58.56000000  *
   517       H         69.88800000  *  157.89100000  * -58.09300000  *
   518       H         71.22100000  *  157.96000000  * -56.96600000  *
   519       C         70.85100000  *  156.29000000  * -59.92300000  *
   520       H         71.28300000  *  155.39700000  * -60.34200000  *
   521       H         69.78900000  *  156.14400000  * -59.75100000  *
   522       H         71.00300000  *  157.12700000  * -60.60700000  *
   523       C         75.24500000  *  155.67800000  * -59.15800000  *
   524       O         75.83900000  *  156.04700000  * -60.17600000  *
   525       N         75.86200000  *  155.44600000  * -57.99600000  *
   526       H         75.29500000  *  155.17900000  * -57.20400000  *
   527       C         77.30800000  *  155.64700000  * -57.82900000  *
   528       H         77.80800000  *  155.40400000  * -58.76600000  *
   529       C         77.60000000  *  157.11700000  * -57.51900000  *
   530       H         76.91700000  *  157.54400000  * -56.80300000  *
   531       H         78.58200000  *  157.17000000  * -57.04800000  *
   532       C         77.65600000  *  157.97500000  * -58.75600000  *
   533       O         78.67800000  *  157.91700000  * -59.48300000  *
   534       O         76.67400000  *  158.70400000  * -59.00000000  *
   535       C         77.97900000  *  154.81700000  * -56.73400000  *
   536       O         77.37100000  *  154.52100000  * -55.70400000  *
   537       N         79.24700000  *  154.47700000  * -56.96600000  *
   538       H         79.69800000  *  154.82400000  * -57.79800000  *
   539       C         80.06100000  *  153.73800000  * -56.00300000  *
   540       H         79.55400000  *  153.69900000  * -55.05200000  *
   541       C         80.36600000  *  152.29800000  * -56.50400000  *
   542       H         79.42700000  *  151.75200000  * -56.56200000  *
   543       C         80.98100000  *  152.34300000  * -57.88400000  *
   544       H         82.06600000  *  152.43300000  * -57.82100000  *
   545       H         80.74600000  *  151.41400000  * -58.37900000  *
   546       H         80.59600000  *  153.14500000  * -58.51000000  *
   547       C         81.29900000  *  151.58800000  * -55.53900000  *
   548       H         80.81100000  *  151.54900000  * -54.57200000  *
   549       H         81.47300000  *  150.57200000  * -55.87800000  *
   550       H         82.25900000  *  152.09200000  * -55.44900000  *
   551       C         81.36500000  *  154.53600000  * -55.81000000  *
   552       O         82.27000000  *  154.48900000  * -56.64700000  *
   553       N         81.45200000  *  155.28200000  * -54.71000000  *
   554       H         80.67600000  *  155.30400000  * -54.06400000  *
   555       C         82.62100000  *  156.11100000  * -54.44300000  *
   556       H         83.20500000  *  156.21800000  * -55.35800000  *
   557       H         82.32200000  *  157.12800000  * -54.14500000  *
   558       H         83.29700000  *  155.73900000  * -53.65600000  *
   559       H         84.58000000  *  155.17100000  * -47.07300000  *
   560       C         84.22500000  *  154.98400000  * -48.09100000  *
   561       O         84.63900000  *  155.65900000  * -49.04200000  *
   562       N         83.35800000  *  153.99100000  * -48.22200000  *
   563       H         83.13600000  *  153.42800000  * -47.41700000  *
   564       C         82.77600000  *  153.65100000  * -49.50600000  *
   565       H         83.37000000  *  154.04700000  * -50.31700000  *
   566       C         82.71900000  *  152.14000000  * -49.66000000  *
   567       H         83.74000000  *  151.87500000  * -49.95700000  *
   568       H         82.64400000  *  151.54600000  * -48.78400000  *
   569       C         81.82600000  *  151.61900000  * -50.77900000  *
   570       H         80.79100000  *  151.88400000  * -50.58700000  *
   571       C         82.25800000  *  152.23100000  * -52.09200000  *
   572       H         83.31100000  *  152.49100000  * -52.08900000  *
   573       H         82.09300000  *  151.51300000  * -52.88400000  *
   574       H         81.65400000  *  153.10900000  * -52.31200000  *
   575       C         81.89900000  *  150.09400000  * -50.82200000  *
   576       H         81.91300000  *  149.66400000  * -49.82700000  *
   577       H         81.05200000  *  149.70600000  * -51.39100000  *
   578       H         82.82500000  *  149.80300000  * -51.32100000  *
   579       C         81.36700000  *  154.23200000  * -49.54800000  *
   580       O         80.51800000  *  153.85700000  * -48.74500000  *
   581       N         81.13100000  *  155.16100000  * -50.46700000  *
   582       H         81.84500000  *  155.34800000  * -51.16200000  *
   583       C         79.82200000  *  155.78100000  * -50.60800000  *
   584       H         79.27400000  *  155.67000000  * -49.68700000  *
   585       C         79.96700000  *  157.27800000  * -50.86800000  *
   586       H         80.42300000  *  157.50400000  * -51.79700000  *
   587       H         78.95400000  *  157.66400000  * -50.98900000  *
   588       C         80.57600000  *  158.04300000  * -49.72300000  *
   589       C         79.79300000  *  158.48000000  * -48.65600000  *
   590       H         78.73500000  *  158.25400000  * -48.66900000  *
   591       C         80.35600000  *  159.18600000  * -47.59400000  *
   592       H         79.75300000  *  159.56200000  * -46.79700000  *
   593       C         81.71600000  *  159.45200000  * -47.58700000  *
   594       O         82.27600000  *  160.12500000  * -46.52100000  *
   595       H         83.20600000  *  160.30800000  * -46.74500000  *
   596       C         82.51400000  *  159.02600000  * -48.63700000  *
   597       H         83.58200000  *  159.23300000  * -48.65000000  *
   598       C         81.94100000  *  158.32800000  * -49.69800000  *
   599       H         82.57400000  *  157.98100000  * -50.50200000  *
   600       C         79.04800000  *  155.15800000  * -51.76500000  *
   601       O         79.54400000  *  155.08000000  * -52.88800000  *
   602       N         77.86200000  *  154.62400000  * -51.49500000  *
   603       H         77.53600000  *  154.64700000  * -50.53400000  *
   604       C         76.98100000  *  154.05500000  * -52.51200000  *
   605       H         77.50500000  *  154.00000000  * -53.46000000  *
   606       C         76.54400000  *  152.62500000  * -52.15100000  *
   607       H         75.85600000  *  152.67400000  * -51.31500000  *
   608       H         75.99700000  *  152.22000000  * -53.00300000  *
   609       C         77.67800000  *  151.65300000  * -51.78700000  *
   610       H         78.19000000  *  151.99900000  * -50.89000000  *
   611       C         77.10300000  *  150.26400000  * -51.50900000  *
   612       H         76.61100000  *  149.87500000  * -52.40300000  *
   613       H         77.90500000  *  149.58500000  * -51.21900000  *
   614       H         76.38200000  *  150.32100000  * -50.69500000  *
   615       C         78.68700000  *  151.52700000  * -52.92200000  *
   616       H         79.20900000  *  152.47200000  * -53.05400000  *
   617       H         79.42100000  *  150.76400000  * -52.67300000  *
   618       H         78.17600000  *  151.26200000  * -53.84900000  *
   619       C         75.78500000  *  154.98500000  * -52.67200000  *
   620       O         75.10100000  *  155.26000000  * -51.68200000  *
   621       N         75.54700000  *  155.50800000  * -53.87800000  *
   622       H         76.14500000  *  155.25500000  * -54.66000000  *
   623       C         74.40900000  *  156.37500000  * -54.09400000  *
   624       H         73.97600000  *  156.70200000  * -53.15000000  *
   625       C         74.83400000  *  157.63700000  * -54.81800000  *
   626       H         75.25500000  *  157.34500000  * -55.76600000  *
   627       C         73.61400000  *  158.52200000  * -55.10900000  *
   628       H         73.11700000  *  158.76900000  * -54.17500000  *
   629       H         73.94100000  *  159.43100000  * -55.61500000  *
   630       H         72.91600000  *  158.00900000  * -55.76200000  *
   631       C         75.84000000  *  158.38200000  * -53.94900000  *
   632       H         75.28100000  *  158.78400000  * -53.13000000  *
   633       H         76.65600000  *  157.75800000  * -53.60500000  *
   634       H         76.26100000  *  159.20400000  * -54.52500000  *
   635       C         73.31400000  *  155.64400000  * -54.85300000  *
   636       O         73.49500000  *  155.22100000  * -55.99400000  *
   637       N         72.19200000  *  155.41500000  * -54.17400000  *
   638       H         72.12000000  *  155.77300000  * -53.22600000  *
   639       C         71.00800000  *  154.75600000  * -54.72100000  *
   640       H         71.26000000  *  154.28800000  * -55.66800000  *
   641       C         70.53300000  *  153.66600000  * -53.75500000  *
   642       H         70.36300000  *  154.11200000  * -52.77600000  *
   643       H         69.57100000  *  153.29500000  * -54.10400000  *
   644       C         71.47300000  *  152.48600000  * -53.59800000  *
   645       C         71.37500000  *  151.38300000  * -54.46900000  *
   646       H         70.65300000  *  151.38800000  * -55.27200000  *
   647       C         72.20800000  *  150.26400000  * -54.29300000  *
   648       H         72.12300000  *  149.41500000  * -54.95800000  *
   649       C         73.14800000  *  150.24500000  * -53.24800000  *
   650       H         73.78800000  *  149.38300000  * -53.11200000  *
   651       C         73.25200000  *  151.34700000  * -52.38100000  *
   652       H         73.96700000  *  151.32600000  * -51.57300000  *
   653       C         72.42100000  *  152.46800000  * -52.55700000  *
   654       H         72.50300000  *  153.31200000  * -51.88500000  *
   655       C         69.88300000  *  155.76700000  * -54.96700000  *
   656       O         69.73200000  *  156.72900000  * -54.21300000  *
   657       N         69.07200000  *  155.55900000  * -56.00600000  *
   658       H         69.23100000  *  154.73800000  * -56.58100000  *
   659       C         67.81200000  *  156.30500000  * -56.17200000  *
   660       H         68.05700000  *  157.35400000  * -56.34000000  *
   661       C         67.04200000  *  155.79500000  * -57.40600000  *
   662       H         66.18600000  *  156.45200000  * -57.56100000  *
   663       H         67.69000000  *  155.86500000  * -58.28000000  *
   664       C         66.54200000  *  154.34800000  * -57.26400000  *
   665       H         67.39900000  *  153.69300000  * -57.10100000  *
   666       H         65.89100000  *  154.27600000  * -56.39600000  *
   667       C         65.73000000  *  153.83700000  * -58.45700000  *
   668       O         65.27700000  *  154.63800000  * -59.30600000  *
   669       O         65.50300000  *  152.60700000  * -58.50800000  *
   670       C         66.95200000  *  156.21600000  * -54.89300000  *
   671       O         66.84100000  *  155.14500000  * -54.30000000  *
   672       N         66.35100000  *  157.31400000  * -54.42900000  *
   673       H         66.41900000  *  158.18100000  * -54.94300000  *
   674       C         65.49900000  *  157.27400000  * -53.23300000  *
   675       H         65.99300000  *  156.66100000  * -52.47700000  *
   676       C         65.35800000  *  158.68200000  * -52.64900000  *
   677       H         66.34900000  *  159.05200000  * -52.38900000  *
   678       H         64.94200000  *  159.34100000  * -53.41200000  *
   679       C         64.48900000  *  158.75200000  * -51.40700000  *
   680       C         63.19000000  *  159.29100000  * -51.47800000  *
   681       H         62.80700000  *  159.66700000  * -52.41700000  *
   682       C         62.38000000  *  159.33400000  * -50.33000000  *
   683       H         61.38100000  *  159.74300000  * -50.39100000  *
   684       C         62.86400000  *  158.83500000  * -49.10700000  *
   685       H         62.23800000  *  158.86000000  * -48.22500000  *
   686       C         64.16200000  *  158.30000000  * -49.03300000  *
   687       H         64.53200000  *  157.91400000  * -48.09300000  *
   688       C         64.97400000  *  158.25800000  * -50.18100000  *
   689       H         65.96800000  *  157.83900000  * -50.12200000  *
   690       C         64.12600000  *  156.64300000  * -53.52000000  *
   691       O         63.47400000  *  156.98900000  * -54.50800000  *
   692       N         63.66400000  *  155.76500000  * -52.62300000  *
   693       H         64.26600000  *  155.51900000  * -51.84500000  *
   694       C         62.27800000  *  155.28400000  * -52.56000000  *
   695       H         61.67800000  *  155.80000000  * -53.31200000  *
   696       C         62.19500000  *  153.77200000  * -52.83100000  *
   697       H         62.95500000  *  153.25500000  * -52.24700000  *
   698       H         61.21900000  *  153.43300000  * -52.47900000  *
   699       C         62.32100000  *  153.40600000  * -54.32300000  *
   700       H         61.92700000  *  154.21700000  * -54.93500000  *
   701       C         63.77400000  *  153.13700000  * -54.71400000  *
   702       H         64.19400000  *  152.36300000  * -54.07500000  *
   703       H         63.83100000  *  152.83300000  * -55.75800000  *
   704       H         64.35900000  *  154.04600000  * -54.59300000  *
   705       C         61.50900000  *  152.14800000  * -54.64000000  *
   706       H         60.47000000  *  152.29100000  * -54.34400000  *
   707       H         61.53100000  *  151.95700000  * -55.71100000  *
   708       H         61.91600000  *  151.28800000  * -54.11100000  *
   709       C         61.66700000  *  155.62800000  * -51.19800000  *
   710       O         62.35100000  *  155.64000000  * -50.17700000  *
   711       N         60.38000000  *  155.96000000  * -51.19100000  *
   712       H         59.88200000  *  155.94800000  * -52.07300000  *
   713       C         59.72600000  *  156.65400000  * -50.07900000  *
   714       H         60.36400000  *  157.48900000  * -49.78500000  *
   715       C         58.40400000  *  157.24700000  * -50.58500000  *
   716       H         57.68500000  *  156.43900000  * -50.72400000  *
   717       H         58.02100000  *  157.92300000  * -49.82400000  *
   718       C         58.51800000  *  158.00400000  * -51.88900000  *
   719       N         58.56100000  *  157.42200000  * -53.16100000  *
   720       C         58.71000000  *  158.44000000  * -54.02700000  *
   721       H         58.77800000  *  158.33600000  * -55.10400000  *
   722       N         58.76600000  *  159.61000000  * -53.36700000  *
   723       H         58.87600000  *  160.52100000  * -53.80400000  *
   724       C         58.65200000  *  159.35600000  * -52.01800000  *
   725       H         58.67200000  *  160.08000000  * -51.21300000  *
   726       C         59.51300000  *  155.81800000  * -48.80300000  *
   727       O         59.38300000  *  156.39900000  * -47.72500000  *
   728       N         59.46400000  *  154.48300000  * -48.90100000  *
   729       H         59.58300000  *  154.06600000  * -49.81400000  *
   730       C         59.12600000  *  153.58100000  * -47.78700000  *
   731       H         59.60100000  *  153.95600000  * -46.88000000  *
   732       C         57.59400000  *  153.62100000  * -47.58600000  *
   733       H         57.31400000  *  154.63900000  * -47.31200000  *
   734       H         57.09300000  *  153.37800000  * -48.52600000  *
   735       C         57.08100000  *  152.66700000  * -46.49800000  *
   736       H         56.91500000  *  151.68500000  * -46.93800000  *
   737       H         57.83200000  *  152.57800000  * -45.71500000  *
   738       C         55.79400000  *  153.15400000  * -45.84100000  *
   739       O         55.80800000  *  153.83200000  * -44.82700000  *
   740       N         54.63700000  *  152.82700000  * -46.37600000  *
   741       H         53.80900000  *  153.17000000  * -45.91200000  *
   742       H         54.59700000  *  152.29900000  * -47.22900000  *
   743       C         59.64200000  *  152.14400000  * -48.01900000  *
   744       O         59.66700000  *  151.67000000  * -49.15500000  *
   745       N         60.03600000  *  151.44000000  * -46.94800000  *
   746       H         60.00700000  *  151.88300000  * -46.04300000  *
   747       C         60.32900000  *  149.99700000  * -46.98600000  *
   748       H         60.63200000  *  149.76500000  * -48.00200000  *
   749       C         61.54800000  *  149.64400000  * -46.10600000  *
   750       H         61.86300000  *  148.63500000  * -46.37900000  *
   751       H         62.36500000  *  150.31600000  * -46.37200000  *
   752       C         61.34600000  *  149.67500000  * -44.58300000  *
   753       O         60.24400000  *  149.33600000  * -44.10500000  *
   754       O         62.31800000  *  149.99500000  * -43.86100000  *
   755       C         59.09600000  *  149.10900000  * -46.70400000  *
   756       O         58.06600000  *  149.56000000  * -46.18500000  *
   757       N         59.19100000  *  147.81900000  * -47.04800000  *
   758       H         60.03800000  *  147.50900000  * -47.52500000  *
   759       C         58.10100000  *  146.88000000  * -46.84100000  *
   760       H         57.21800000  *  147.32500000  * -47.29300000  *
   761       C         58.41200000  *  145.57700000  * -47.59200000  *
   762       H         58.61300000  *  145.80400000  * -48.64400000  *
   763       H         59.28800000  *  145.12100000  * -47.15800000  *
   764       C         57.28700000  *  144.52700000  * -47.51900000  *
   765       H         57.05600000  *  144.28000000  * -46.48700000  *
   766       C         56.00700000  *  145.04400000  * -48.19600000  *
   767       H         56.23500000  *  145.37800000  * -49.20200000  *
   768       H         55.26800000  *  144.24500000  * -48.23100000  *
   769       H         55.59500000  *  145.87000000  * -47.62900000  *
   770       C         57.76800000  *  143.24900000  * -48.17500000  *
   771       H         58.61500000  *  142.85400000  * -47.62000000  *
   772       H         56.97300000  *  142.50400000  * -48.17100000  *
   773       H         58.06400000  *  143.44500000  * -49.20700000  *
   774       C         57.76400000  *  146.61300000  * -45.36900000  *
   775       O         56.60900000  *  146.37600000  * -45.03000000  *
   776       N         58.75700000  *  146.67700000  * -44.48800000  *
   777       H         59.64000000  *  147.08600000  * -44.79000000  *
   778       C         58.49100000  *  146.46700000  * -43.07300000  *
   779       H         57.97900000  *  145.55100000  * -42.87200000  *
   780       C         59.78200000  *  146.47800000  * -42.25400000  *
   781       H         60.44800000  *  145.70000000  * -42.62000000  *
   782       H         60.28600000  *  147.44000000  * -42.35600000  *
   783       C         59.49200000  *  146.22900000  * -40.76500000  *
   784       H         58.94200000  *  147.08300000  * -40.37400000  *
   785       H         58.87100000  *  145.33200000  * -40.67600000  *
   786       C         60.74500000  *  146.03800000  * -39.93500000  *
   787       H         61.36100000  *  145.25900000  * -40.37900000  *
   788       H         61.30800000  *  146.97100000  * -39.90700000  *
   789       C         60.37600000  *  145.60700000  * -38.51700000  *
   790       H         59.98500000  *  144.58900000  * -38.53700000  *
   791       H         61.27900000  *  145.61300000  * -37.90300000  *
   792       N         59.34600000  *  146.53100000  * -37.94700000  *
   793       H         58.44600000  *  146.48100000  * -38.44300000  *
   794       H         59.09000000  *  146.27800000  * -37.00400000  *
   795       H         59.61300000  *  147.50600000  * -37.97800000  *
   796       C         57.55800000  *  147.53800000  * -42.51200000  *
   797       O         56.61300000  *  147.23400000  * -41.78300000  *
   798       N         57.83100000  *  148.81300000  * -42.80300000  *
   799       H         58.65800000  *  149.01100000  * -43.37000000  *
   800       C         57.00700000  *  149.92900000  * -42.32700000  *
   801       H         56.89200000  *  149.83700000  * -41.24500000  *
   802       C         57.72000000  *  151.25700000  * -42.62000000  *
   803       H         58.73800000  *  151.19900000  * -42.23100000  *
   804       H         57.77100000  *  151.41400000  * -43.69800000  *
   805       C         57.01100000  *  152.44500000  * -41.95100000  *
   806       H         56.02600000  *  152.57700000  * -42.39900000  *
   807       H         56.88400000  *  152.23200000  * -40.88800000  *
   808       C         57.82100000  *  153.74000000  * -42.10200000  *
   809       H         58.78500000  *  153.61900000  * -41.60500000  *
   810       H         57.98900000  *  153.94600000  * -43.16100000  *
   811       C         57.05500000  *  154.90600000  * -41.46400000  *
   812       H         56.09600000  *  155.01700000  * -41.97700000  *
   813       H         56.84700000  *  154.65600000  * -40.41900000  *
   814       N         57.82100000  *  156.17500000  * -41.53500000  *
   815       H         58.00500000  *  156.44100000  * -42.49100000  *
   816       H         57.30900000  *  156.93100000  * -41.10200000  *
   817       H         58.70700000  *  156.09600000  * -41.05600000  *
   818       C         55.60400000  *  149.84500000  * -42.92600000  *
   819       O         54.62500000  *  150.09500000  * -42.22900000  *
   820       N         55.49500000  *  149.42600000  * -44.18900000  *
   821       H         56.35000000  *  149.26300000  * -44.71300000  *
   822       C         54.20500000  *  149.26000000  * -44.85200000  *
   823       H         53.62600000  *  150.17500000  * -44.72500000  *
   824       C         54.41000000  *  148.98800000  * -46.34000000  *
   825       H         54.98900000  *  149.80200000  * -46.77700000  *
   826       H         55.00200000  *  148.07700000  * -46.45200000  *
   827       C         53.12600000  *  148.85300000  * -47.10800000  *
   828       C         52.23100000  *  149.92200000  * -47.18600000  *
   829       H         52.46300000  *  150.85600000  * -46.69900000  *
   830       C         51.01500000  *  149.79500000  * -47.88400000  *
   831       H         50.32500000  *  150.62800000  * -47.91800000  *
   832       C         50.69700000  *  148.60300000  * -48.50200000  *
   833       H         49.75200000  *  148.50200000  * -49.02000000  *
   834       C         51.58700000  *  147.52100000  * -48.43200000  *
   835       H         51.33500000  *  146.58300000  * -48.91200000  *
   836       C         52.79500000  *  147.65400000  * -47.73300000  *
   837       H         53.46700000  *  146.81000000  * -47.67200000  *
   838       C         53.37400000  *  148.12200000  * -44.22700000  *
   839       O         52.16900000  *  148.28300000  * -44.00900000  *
   840       N         54.01600000  *  146.98100000  * -43.96600000  *
   841       H         55.00900000  *  146.90600000  * -44.17900000  *
   842       C         53.33800000  *  145.83600000  * -43.34100000  *
   843       H         52.47600000  *  145.52800000  * -43.93400000  *
   844       C         54.29200000  *  144.65000000  * -43.17000000  *
   845       H         55.15800000  *  145.02700000  * -42.63600000  *
   846       H         53.80700000  *  143.89200000  * -42.54700000  *
   847       C         54.73100000  *  144.00400000  * -44.46100000  *
   848       H         53.84700000  *  143.61400000  * -44.95900000  *
   849       H         55.19200000  *  144.69400000  * -45.15000000  *
   850       S         55.79700000  *  142.58100000  * -44.15400000  *
   851       C         57.05400000  *  143.29200000  * -43.18800000  *
   852       H         56.67800000  *  143.65800000  * -42.23500000  *
   853       H         57.80700000  *  142.53400000  * -42.98200000  *
   854       H         57.44300000  *  144.07900000  * -43.80900000  *
   855       C         52.84400000  *  146.26000000  * -41.95900000  *
   856       O         51.68200000  *  146.03200000  * -41.61400000  *
   857       N         53.72600000  *  146.88400000  * -41.17900000  *
   858       H         54.70100000  *  146.95700000  * -41.45300000  *
   859       C         53.34300000  *  147.35100000  * -39.84600000  *
   860       H         53.03400000  *  146.49700000  * -39.23800000  *
   861       C         54.50500000  *  148.07700000  * -39.15700000  *
   862       H         54.94100000  *  148.81500000  * -39.83000000  *
   863       H         54.12400000  *  148.60600000  * -38.28400000  *
   864       C         55.58400000  *  147.11500000  * -38.68500000  *
   865       O         55.26200000  *  145.90900000  * -38.57600000  *
   866       O         56.73300000  *  147.55200000  * -38.41700000  *
   867       C         52.15000000  *  148.27900000  * -39.96300000  *
   868       O         51.20300000  *  148.18000000  * -39.18700000  *
   869       N         52.18300000  *  149.16200000  * -40.95500000  *
   870       H         53.01600000  *  149.23700000  * -41.51800000  *
   871       C         51.08600000  *  150.10000000  * -41.17300000  *
   872       H         50.93100000  *  150.67400000  * -40.25800000  *
   873       C         51.42800000  *  151.06800000  * -42.31500000  *
   874       H         51.45500000  *  150.53900000  * -43.26600000  *
   875       H         50.66000000  *  151.83800000  * -42.36800000  *
   876       H         52.39300000  *  151.53600000  * -42.12800000  *
   877       C         49.78900000  *  149.37000000  * -41.49900000  *
   878       O         48.71100000  *  149.83600000  * -41.15600000  *
   879       N         49.90500000  *  148.22900000  * -42.16400000  *
   880       H         50.83800000  *  147.88500000  * -42.38200000  *
   881       C         48.74000000  *  147.45400000  * -42.57500000  *
   882       H         47.85700000  *  148.08600000  * -42.62800000  *
   883       H         48.90600000  *  147.02300000  * -43.58600000  *
   884       H         48.52600000  *  146.61900000  * -41.88800000  *
   885       H         72.54500000  *  137.05800000  * -55.15200000  *
   886       C         72.38600000  *  137.90500000  * -54.47400000  *
   887       O         73.28300000  *  138.71900000  * -54.28600000  *
   888       N         71.20100000  *  138.01500000  * -53.89800000  *
   889       H         70.47300000  *  137.31400000  * -54.05700000  *
   890       C         70.96800000  *  139.10000000  * -52.94900000  *
   891       H         71.50000000  *  140.00600000  * -53.22900000  *
   892       C         69.47700000  *  139.40500000  * -52.82500000  *
   893       H         69.09300000  *  139.71900000  * -53.79200000  *
   894       H         68.93000000  *  138.50600000  * -52.53300000  *
   895       C         69.17800000  *  140.45400000  * -51.81200000  *
   896       N         69.23000000  *  140.42300000  * -50.45900000  *
   897       C         68.94700000  *  141.69100000  * -50.01400000  *
   898       H         68.96900000  *  142.01200000  * -48.98400000  *
   899       N         68.72400000  *  142.47200000  * -51.05500000  *
   900       H         68.47200000  *  143.44500000  * -51.00700000  *
   901       C         68.85400000  *  141.75000000  * -52.15500000  *
   902       H         68.77100000  *  142.12600000  * -53.16500000  *
   903       C         71.52100000  *  138.65700000  * -51.58300000  *
   904       O         72.28000000  *  139.38000000  * -50.94700000  *
   905       N         71.11400000  *  137.47100000  * -51.14500000  *
   906       H         70.37100000  *  137.01600000  * -51.66500000  *
   907       C         71.55500000  *  136.88000000  * -49.87700000  *
   908       H         71.18200000  *  135.84900000  * -49.87900000  *
   909       C         73.07600000  *  136.85300000  * -49.83700000  *
   910       H         73.53100000  *  137.83300000  * -49.86900000  *
   911       H         73.36600000  *  136.47900000  * -48.85100000  *
   912       C         73.64700000  *  135.85900000  * -50.81700000  *
   913       H         73.29800000  *  134.87100000  * -50.67200000  *
   914       H         73.21600000  *  136.10500000  * -51.78700000  *
   915       C         75.11700000  *  136.08400000  * -50.99900000  *
   916       H         75.61200000  *  135.95400000  * -50.03300000  *
   917       H         75.49500000  *  135.33200000  * -51.69500000  *
   918       N         75.35800000  *  137.42700000  * -51.50600000  *
   919       H         74.62100000  *  138.12700000  * -51.38200000  *
   920       C         76.54800000  *  137.85900000  * -51.89000000  *
   921       N         77.59300000  *  137.04400000  * -51.81500000  *
   922       H         77.44700000  *  136.21200000  * -51.26800000  *
   923       H         78.49900000  *  137.44300000  * -51.92100000  *
   924       N         76.69000000  *  139.09300000  * -52.35600000  *
   925       H         75.86000000  *  139.69200000  * -52.33800000  *
   926       H         77.56200000  *  139.47800000  * -52.67100000  *
   927       C         71.03700000  *  137.42400000  * -48.54200000  *
   928       O         71.18700000  *  136.76800000  * -47.50900000  *
   929       N         70.43700000  *  138.60400000  * -48.51600000  *
   930       H         70.32800000  *  139.16900000  * -49.34700000  *
   931       C         69.93700000  *  139.07600000  * -47.23100000  *
   932       H         69.76500000  *  138.24900000  * -46.54100000  *
   933       C         70.93500000  *  140.04200000  * -46.56200000  *
   934       H         71.90900000  *  139.56600000  * -46.50900000  *
   935       H         71.04400000  *  140.94300000  * -47.17900000  *
   936       C         70.51300000  *  140.42800000  * -45.14700000  *
   937       O         70.17200000  *  139.51500000  * -44.35500000  *
   938       O         70.51000000  *  141.64400000  * -44.82500000  *
   939       C         68.58700000  *  139.73400000  * -47.37800000  *
   940       O         68.35000000  *  140.81000000  * -46.83500000  *
   941       N         67.68700000  *  139.08300000  * -48.11000000  *
   942       H         67.94300000  *  138.20800000  * -48.54500000  *
   943       C         66.35900000  *  139.64900000  * -48.29900000  *
   944       H         66.47700000  *  140.66700000  * -48.65900000  *
   945       C         65.54600000  *  138.81300000  * -49.28800000  *
   946       H         65.58300000  *  137.78400000  * -48.94500000  *
   947       H         64.50600000  *  139.14000000  * -49.25500000  *
   948       C         66.02700000  *  138.85500000  * -50.73600000  *
   949       H         67.06400000  *  138.52800000  * -50.78200000  *
   950       C         65.17300000  *  137.91700000  * -51.58300000  *
   951       H         64.15900000  *  138.30500000  * -51.68800000  *
   952       H         65.63400000  *  137.80700000  * -52.55000000  *
   953       H         65.13400000  *  136.93500000  * -51.11000000  *
   954       C         65.92100000  *  140.27700000  * -51.26400000  *
   955       H         66.42000000  *  140.99600000  * -50.63300000  *
   956       H         66.44200000  *  140.27500000  * -52.20900000  *
   957       H         64.88200000  *  140.56100000  * -51.39700000  *
   958       C         65.59400000  *  139.73400000  * -46.98200000  *
   959       O         65.58600000  *  138.79200000  * -46.16600000  *
   960       N         64.95100000  *  140.85300000  * -46.75000000  *
   961       H         64.95800000  *  141.58300000  * -47.45000000  *
   962       C         64.16000000  *  141.05900000  * -45.55300000  *
   963       H         63.54800000  *  140.16800000  * -45.41500000  *
   964       C         65.03700000  *  141.22300000  * -44.29300000  *
   965       H         64.40100000  *  141.29500000  * -43.41000000  *
   966       H         65.62900000  *  140.31600000  * -44.17000000  *
   967       C         65.98000000  *  142.43200000  * -44.30400000  *
   968       H         66.40000000  *  142.56700000  * -45.29800000  *
   969       H         65.42900000  *  143.32900000  * -44.02200000  *
   970       C         67.12400000  *  142.17300000  * -43.31900000  *
   971       H         66.71600000  *  141.91400000  * -42.34000000  *
   972       H         67.70000000  *  141.32300000  * -43.69400000  *
   973       C         68.03900000  *  143.39100000  * -43.17700000  *
   974       H         68.15500000  *  143.86800000  * -44.15600000  *
   975       H         67.55800000  *  144.11200000  * -42.50600000  *
   976       N         69.36500000  *  142.97700000  * -42.65200000  *
   977       H         69.86300000  *  142.41200000  * -43.35400000  *
   978       H         69.92900000  *  143.78300000  * -42.41300000  *
   979       H         69.26000000  *  142.42000000  * -41.81400000  *
   980       C         63.26200000  *  142.22700000  * -45.84200000  *
   981       O         63.62200000  *  143.07100000  * -46.66300000  *
   982       N         62.11200000  *  142.30300000  * -45.18600000  *
   983       C         61.62600000  *  141.34600000  * -44.17100000  *
   984       H         62.10000000  *  141.53200000  * -43.20900000  *
   985       H         61.74500000  *  140.31100000  * -44.47600000  *
   986       C         60.16400000  *  141.66900000  * -44.09500000  *
   987       H         59.73700000  *  141.34900000  * -43.14300000  *
   988       H         59.63700000  *  141.20600000  * -44.93200000  *
   989       C         60.16000000  *  143.18900000  * -44.24800000  *
   990       H         60.51600000  *  143.64900000  * -43.32100000  *
   991       H         59.20200000  *  143.56500000  * -44.57400000  *
   992       C         61.14500000  *  143.38000000  * -45.40300000  *
   993       H         60.63400000  *  143.20500000  * -46.34500000  *
   994       C         61.77100000  *  144.77100000  * -45.44800000  *
   995       O         61.39200000  *  145.58400000  * -46.27300000  *
   996       N         62.73400000  *  145.08200000  * -44.56200000  *
   997       H         62.97700000  *  144.38800000  * -43.87100000  *
   998       C         63.46200000  *  146.37400000  * -44.53200000  *
   999       H         62.73800000  *  147.18500000  * -44.43300000  *
  1000       C         64.41800000  *  146.42400000  * -43.32600000  *
  1001       H         65.11300000  *  145.58700000  * -43.39200000  *
  1002       H         65.00400000  *  147.34300000  * -43.38900000  *
  1003       C         63.73100000  *  146.41100000  * -41.95300000  *
  1004       H         63.05500000  *  147.26400000  * -41.89100000  *
  1005       H         63.15200000  *  145.49600000  * -41.84000000  *
  1006       C         64.74700000  *  146.47700000  * -40.80900000  *
  1007       O         65.77200000  *  145.80900000  * -40.81100000  *
  1008       N         64.50600000  *  147.26600000  * -39.78500000  *
  1009       H         65.18500000  *  147.29700000  * -39.03800000  *
  1010       H         63.69100000  *  147.85900000  * -39.76500000  *
  1011       C         64.30600000  *  146.66600000  * -45.79100000  *
  1012       O         64.54500000  *  147.82300000  * -46.13000000  *
  1013       N         64.76800000  *  145.62100000  * -46.48100000  *
  1014       H         64.45700000  *  144.70200000  * -46.19900000  *
  1015       C         65.54100000  *  145.69200000  * -47.72200000  *
  1016       H         66.09800000  *  146.63000000  * -47.75500000  *
  1017       C         66.56000000  *  144.52200000  * -47.75700000  *
  1018       H         66.07000000  *  143.59800000  * -47.46300000  *
  1019       H         66.91100000  *  144.38200000  * -48.77700000  *
  1020       C         67.80700000  *  144.73300000  * -46.90800000  *
  1021       O         68.13500000  *  145.83300000  * -46.49000000  *
  1022       N         68.55700000  *  143.68900000  * -46.62300000  *
  1023       H         69.44700000  *  143.85100000  * -46.18000000  *
  1024       H         68.29900000  *  142.73500000  * -46.86100000  *
  1025       C         64.63300000  *  145.70500000  * -48.97000000  *
  1026       O         65.15400000  *  145.62100000  * -50.08100000  *
  1027       N         63.30000000  *  145.80300000  * -48.83400000  *
  1028       H         62.89500000  *  145.87300000  * -47.90900000  *
  1029       C         62.40600000  *  145.84500000  * -49.97900000  *
  1030       H         62.94700000  *  145.74800000  * -50.91900000  *
  1031       C         61.36900000  *  144.72100000  * -49.88900000  *
  1032       H         60.76900000  *  144.86100000  * -48.99200000  *
  1033       H         60.74400000  *  144.79800000  * -50.77200000  *
  1034       C         62.03600000  *  143.32400000  * -49.85900000  *
  1035       H         62.67100000  *  143.24000000  * -48.98800000  *
  1036       C         61.00200000  *  142.26000000  * -49.77100000  *
  1037       H         60.24600000  *  142.42800000  * -50.53400000  *
  1038       H         61.44700000  *  141.27100000  * -49.89000000  *
  1039       H         60.52000000  *  142.31900000  * -48.79800000  *
  1040       C         62.89500000  *  143.12600000  * -51.08400000  *
  1041       H         63.82900000  *  143.66800000  * -50.95600000  *
  1042       H         63.12900000  *  142.06900000  * -51.20900000  *
  1043       H         62.39300000  *  143.49200000  * -51.96600000  *
  1044       C         61.76300000  *  147.21800000  * -49.95200000  *
  1045       O         61.15000000  *  147.60200000  * -48.96600000  *
  1046       N         61.89100000  *  147.98500000  * -51.02800000  *
  1047       H         62.38200000  *  147.61500000  * -51.83600000  *
  1048       C         61.44300000  *  149.37700000  * -51.05700000  *
  1049       H         61.05600000  *  149.67300000  * -50.08400000  *
  1050       C         62.61500000  *  150.29500000  * -51.38400000  *
  1051       H         62.93700000  *  150.09900000  * -52.40700000  *
  1052       H         62.25300000  *  151.31900000  * -51.31800000  *
  1053       C         63.82400000  *  150.13100000  * -50.45800000  *
  1054       H         64.25600000  *  149.14100000  * -50.58300000  *
  1055       C         64.84000000  *  151.17700000  * -50.87000000  *
  1056       H         64.46400000  *  152.15700000  * -50.59500000  *
  1057       H         65.78400000  *  150.97500000  * -50.37300000  *
  1058       H         64.99500000  *  151.16900000  * -51.94300000  *
  1059       C         63.50600000  *  150.35000000  * -48.98000000  *
  1060       H         62.87800000  *  149.54000000  * -48.62100000  *
  1061       H         64.42600000  *  150.34300000  * -48.39800000  *
  1062       H         62.99000000  *  151.29900000  * -48.84000000  *
  1063       C         60.32300000  *  149.56300000  * -52.06200000  *
  1064       O         60.42200000  *  149.10400000  * -53.18800000  *
  1065       N         59.26800000  *  150.25600000  * -51.67700000  *
  1066       H         59.36500000  *  150.76300000  * -50.80000000  *
  1067       C         58.08300000  *  150.44700000  * -52.50800000  *
  1068       H         58.17300000  *  149.92400000  * -53.45700000  *
  1069       C         56.81900000  *  149.90600000  * -51.78600000  *
  1070       H         55.94300000  *  150.08700000  * -52.41500000  *
  1071       C         56.95000000  *  148.40400000  * -51.54300000  *
  1072       H         57.75300000  *  148.18300000  * -50.83300000  *
  1073       H         56.01300000  *  148.00400000  * -51.15200000  *
  1074       H         57.15800000  *  147.91500000  * -52.48900000  *
  1075       C         56.64700000  *  150.60600000  * -50.43300000  *
  1076       H         57.48200000  *  150.38000000  * -49.77500000  *
  1077       H         56.60500000  *  151.68300000  * -50.57600000  *
  1078       C         55.37000000  *  150.22200000  * -49.68600000  *
  1079       H         55.48900000  *  149.24800000  * -49.22200000  *
  1080       H         55.17000000  *  150.96500000  * -48.91000000  *
  1081       H         54.52900000  *  150.16800000  * -50.38500000  *
  1082       C         57.87200000  *  151.93000000  * -52.81700000  *
  1083       O         58.38200000  *  152.79400000  * -52.10000000  *
  1084       N         57.14900000  *  152.22000000  * -53.89700000  *
  1085       H         56.70500000  *  151.48200000  * -54.43300000  *
  1086       C         56.84100000  *  153.60200000  * -54.22700000  *
  1087       H         57.16800000  *  154.27800000  * -53.43100000  *
  1088       C         57.50400000  *  154.05300000  * -55.54100000  *
  1089       H         57.21800000  *  155.07000000  * -55.80500000  *
  1090       H         58.58200000  *  154.04400000  * -55.38800000  *
  1091       C         57.19300000  *  153.14600000  * -56.70100000  *
  1092       O         56.13500000  *  152.53500000  * -56.76400000  *
  1093       N         58.11500000  *  153.07200000  * -57.64100000  *
  1094       H         57.83300000  *  152.61700000  * -58.48600000  *
  1095       H         58.88600000  *  153.71500000  * -57.62100000  *
  1096       C         55.33100000  *  153.75800000  * -54.32100000  *
  1097       O         54.57600000  *  152.79900000  * -54.11400000  *
  1098       N         54.88500000  *  154.97100000  * -54.62100000  *
  1099       H         55.52100000  *  155.73600000  * -54.79200000  *
  1100       C         53.46400000  *  155.24700000  * -54.72300000  *
  1101       H         52.92700000  *  154.82600000  * -53.87200000  *
  1102       C         53.20900000  *  156.78000000  * -54.75500000  *
  1103       H         52.16900000  *  156.98000000  * -55.02600000  *
  1104       C         53.47800000  *  157.39700000  * -53.41000000  *
  1105       H         54.52100000  *  157.25500000  * -53.13000000  *
[...]
 1005  H   0.83066
 1006  C   1.06552   0.79861   0.73259   0.79880
 1007  O   1.87723   1.40501   1.57049   1.84060
 1008  N   1.52723   1.34506   1.44172   1.28819
 1009  H   0.65742
 1010  H   0.66280
 1011  C   1.08387   0.75809   0.78139   0.81375
 1012  O   1.88496   1.65609   1.31114   1.73777
 1013  N   1.55208   1.50865   1.20369   1.30021
 1014  H   0.66514
 1015  C   1.07259   0.94687   1.09616   0.82001
 1016  H   0.80395
 1017  C   1.07056   1.04560   1.08935   1.16770
 1018  H   0.83129
 1019  H   0.79625
 1020  C   1.05911   0.80903   0.76710   0.75037
 1021  O   1.87678   1.77288   1.38953   1.63335
 1022  N   1.53181   1.30410   1.19136   1.59552
 1023  H   0.66335
 1024  H   0.65411
 1025  C   1.08793   0.78534   0.71969   0.85296
 1026  O   1.87909   1.76778   1.61064   1.37891
 1027  N   1.54111   1.12578   1.66507   1.18333
 1028  H   0.65387
 1029  C   1.06988   0.96901   0.97972   0.97471
 1030  H   0.81077
 1031  C   1.06730   1.06445   0.99767   1.17274
 1032  H   0.83735
 1033  H   0.84809
 1034  C   1.04103   1.01198   0.94625   1.06234
 1035  H   0.85568
 1036  C   1.04921   1.12589   1.11844   1.17069
 1037  H   0.84492
 1038  H   0.84888
 1039  H   0.86579
 1040  C   1.05155   1.14154   1.17172   1.09903
 1041  H   0.84464
 1042  H   0.85758
 1043  H   0.84986
 1044  C   1.07667   0.74992   0.84307   0.75571
 1045  O   1.87197   1.53766   1.79712   1.44607
 1046  N   1.54581   1.55588   1.17143   1.24744
 1047  H   0.64552
 1048  C   1.06512   0.98924   0.82580   1.10075
 1049  H   0.81294
 1050  C   1.06441   1.02187   1.10440   1.12830
 1051  H   0.84663
 1052  H   0.84126
 1053  C   1.04812   0.96796   1.07069   0.96946
 1054  H   0.86548
 1055  C   1.05381   1.12673   1.12830   1.16570
 1056  H   0.84648
 1057  H   0.84858
 1058  H   0.85964
 1059  C   1.05479   1.17653   1.17734   1.04494
 1060  H   0.84037
 1061  H   0.85251
 1062  H   0.84787
 1063  C   1.07541   0.79801   0.74394   0.81724
 1064  O   1.86908   1.83083   1.62624   1.34164
 1065  N   1.54148   1.19056   1.46982   1.29574
 1066  H   0.64388
 1067  C   1.07607   0.88928   1.00764   1.04143
 1068  H   0.81050
 1069  C   1.06428   1.01488   0.99281   1.02016
 1070  H   0.85067
 1071  C   1.05464   1.18110   1.03451   1.17637
 1072  H   0.84293
 1073  H   0.84551
 1074  H   0.85360
 1075  C   1.05408   1.07048   1.12015   1.03139
 1076  H   0.84382
 1077  H   0.86073
 1078  C   1.05245   1.08919   1.15754   1.13191
 1079  H   0.84872
 1080  H   0.87730
 1081  H   0.84767
 1082  C   1.08590   0.74312   0.88671   0.74315
 1083  O   1.88681   1.56833   1.57608   1.55723
 1084  N   1.54274   1.50692   1.14425   1.33713
 1085  H   0.64434
 1086  C   1.06262   0.97105   0.88371   1.03915
 1087  H   0.80081
 1088  C   1.07229   1.18069   1.12641   1.02235
 1089  H   0.81026
 1090  H   0.80565
 1091  C   1.06116   0.76036   0.76944   0.82306
 1092  O   1.87996   1.35664   1.57045   1.83648
 1093  N   1.53436   1.29846   1.49561   1.27248
 1094  H   0.67247
 1095  H   0.66479
 1096  C   1.08288   0.88428   0.75810   0.71097
 1097  O   1.88753   1.65523   1.46965   1.59146
 1098  N   1.54012   1.14463   1.19812   1.67146
 1099  H   0.66255
 1100  C   1.08539   0.83792   1.05771   1.08121
 1101  H   0.80406
 1102  C   1.08419   0.99101   0.86720   0.88981
 1103  H   0.84702
 1104  C   1.05388   1.18490   1.17983   1.05502
 1105  H   0.84069
 1106  H   0.82473
 1107  H   0.82913
 1108  O   1.84897   1.59180   1.82279   1.34469
 1109  H   0.64323
 1110  C   1.07363   0.78878   0.75503   0.82442
 1111  O   1.87778   1.28033   1.68951   1.84917
 1112  N   1.53342   1.19386   1.53460   1.21095
 1113  H   0.66670
 1114  C   1.05705   1.15366   1.13333   0.89336
 1115  H   0.83546
 1116  H   0.83801
 1117  H   0.83545
 1118  H   0.83969
 1119  C   1.10506   0.75514   0.73548   0.91361
 1120  O   1.88317   1.71062   1.59637   1.48252
 1121  N   1.54487   1.42793   1.34582   1.20815
 1122  H   0.65361
 1123  C   1.08075   0.93099   1.08454   0.93148
 1124  H   0.80948
 1125  C   1.07314   1.07905   0.95362   0.98248
 1126  H   0.84398
 1127  C   1.05810   1.18712   1.08404   1.12930
 1128  H   0.84356
 1129  H   0.84843
 1130  H   0.85206
 1131  C   1.05415   1.07578   1.13471   1.01858
 1132  H   0.85371
 1133  H   0.85448
 1134  C   1.04917   1.14385   1.15079   1.09050
 1135  H   0.85011
 1136  H   0.85972
 1137  H   0.84940
 1138  C   1.07227   0.84168   0.73663   0.77768
 1139  O   1.87772   1.89044   1.52113   1.39083
 1140  N   1.54477   1.10299   1.52628   1.33544
 1141  H   0.63240
 1142  C   1.06986   0.84611   1.05340   1.03798
 1143  H   0.81789
 1144  C   1.06010   1.09260   1.04649   1.09620
 1145  H   0.83630
 1146  H   0.84640
 1147  C   1.05106   1.08577   1.04426   1.07801
 1148  H   0.84973
 1149  H   0.84462
 1150  C   1.05940   1.08225   1.05519   1.09818
 1151  H   0.84149
 1152  H   0.83236
 1153  C   1.07894   1.02197   0.99729   1.07424
 1154  H   0.81118
 1155  H   0.83336
 1156  N   1.45912   1.23099   1.22874   1.25602
 1157  H   0.69613
 1158  H   0.69977
 1159  H   0.68610
 1160  C   1.07825   0.77997   0.75058   0.82551
 1161  O   1.88119   1.77234   1.69269   1.29050
 1162  N   1.54483   1.32888   1.42542   1.23089
 1163  H   0.64048
 1164  C   1.07019   0.91854   0.95756   1.02898
 1165  H   0.83195
 1166  C   1.06276   1.10008   1.01925   1.13291
 1167  H   0.83529
 1168  H   0.84466
 1169  C   1.05373   1.07066   0.96114   0.96346
 1170  H   0.85980
 1171  C   1.06223   1.16613   1.13936   1.09226
 1172  H   0.85184
 1173  H   0.84924
 1174  H   0.85271
 1175  C   1.05739   1.18268   1.13695   1.08882
 1176  H   0.85349
 1177  H   0.84838
 1178  H   0.85414
 1179  C   1.08505   0.79127   0.79858   0.75848
 1180  O   1.88075   1.63467   1.59911   1.53886
 1181  N   1.54424   1.36566   1.43986   1.15980
 1182  H   0.64666
 1183  C   1.06735   0.91247   0.92718   1.05074
 1184  H   0.82729
 1185  C   1.05935   1.16525   1.08640   1.15430
 1186  H   0.82203
 1187  H   0.83294
 1188  H   0.82781
 1189  C   1.08828   0.78731   0.78390   0.74630
 1190  O   1.87194   1.84200   1.36221   1.59791
 1191  N   1.54666   1.17245   1.31892   1.49824
 1192  H   0.67275
 1193  C   1.07506   0.87621   1.08047   0.93397
 1194  H   0.81261
 1195  C   1.07983   1.14372   1.18030   1.01117
 1196  H   0.81017
 1197  H   0.83072
 1198  C   1.07356   0.74238   0.71686   0.70843
 1199  O   1.88659   1.82960   1.47761   1.54313
 1200  O   1.87524   1.61950   1.54993   1.80902
 1201  C   1.09076   0.81716   0.79441   0.74875
 1202  O   1.88720   1.28453   1.80570   1.56539
 1203  N   1.56727   1.29449   1.16865   1.54492
 1204  H   0.67957
 1205  C   1.07957   1.02046   0.91884   0.95319
 1206  H   0.83905
 1207  C   1.05564   1.07707   1.20250   0.96299
 1208  H   0.81400
 1209  H   0.81992
 1210  C   1.07482   0.97425   0.97726   0.96988
 1211  C   1.08998   1.04127   1.04143   1.01455
 1212  H   0.83961
 1213  C   1.08859   0.98543   1.06170   1.01074
 1214  H   0.84244
 1215  C   1.08740   1.05975   0.99175   1.03256
 1216  H   0.84791
 1217  C   1.08950   1.03703   1.03616   0.98880
 1218  H   0.83161
 1219  C   1.08732   0.98638   1.06433   1.02360
 1220  H   0.83837
 1221  C   1.08953   0.80285   0.77333   0.76328
 1222  O   1.88540   1.44315   1.55880   1.71368
 1223  N   1.53963   1.41497   1.43828   1.13688
 1224  H   0.68621
 1225  C   1.06850   0.98801   1.06845   0.98104
 1226  H   0.81362
 1227  H   0.80600
 1228  C   1.07953   0.82829   0.77869   0.70471
 1229  O   1.87686   1.84095   1.32495   1.61189
 1230  N   1.55805   1.29944   1.23425   1.44740
 1231  H   0.67201
 1232  C   1.07765   0.89792   1.03318   0.96877
 1233  H   0.83292
 1234  C   1.06799   1.11379   0.95001   1.17435
 1235  H   0.83989
 1236  H   0.82935
 1237  C   1.05176   1.03186   0.96107   1.00970
 1238  H   0.86276
 1239  C   1.05603   1.16784   1.06695   1.16554
 1240  H   0.85885
 1241  H   0.84239
 1242  H   0.85464
 1243  C   1.05560   1.17084   1.18820   1.04665
 1244  H   0.84209
 1245  H   0.84159
 1246  H   0.85817
 1247  C   1.09549   0.85800   0.76591   0.72619
 1248  O   1.88121   1.32495   1.78575   1.59388
 1249  N   1.58224   1.28195   1.23339   1.52136
 1250  H   0.66050
 1251  C   1.06844   0.96443   0.99732   0.95416
 1252  H   0.83682
 1253  C   1.05864   1.13968   1.09740   1.17442
 1254  H   0.84386
 1255  H   0.81014
 1256  H   0.81033
 1257  C   1.07586   0.83426   0.75235   0.78157
 1258  O   1.88393   1.49946   1.59951   1.64945
 1259  N   1.54296   1.31138   1.51224   1.14409
 1260  H   0.67616
 1261  C   1.06251   0.92418   1.14576   1.10587
 1262  H   0.82632
 1263  H   0.82954
 1264  H   0.83901
 1265  H   0.84110
 1266  C   1.10476   0.72478   0.79424   0.87720
 1267  O   1.88385   1.53295   1.36181   1.88320
 1268  N   1.54283   1.48756   1.35136   1.14849
 1269  H   0.67721
 1270  C   1.07288   1.11776   0.96773   0.82264
 1271  H   0.80338
 1272  C   1.05754   1.08944   1.02701   1.14971
 1273  H   0.83834
 1274  H   0.82147
 1275  C   1.06414   0.97787   0.94945   0.96814
 1276  C   1.08273   1.02016   0.99420   1.05881
 1277  H   0.84006
 1278  C   1.08229   1.04744   1.02802   0.99851
 1279  H   0.84511
 1280  C   1.08125   1.00705   1.05594   1.02568
 1281  H   0.84977
 1282  C   1.08066   1.02415   1.00314   1.05467
 1283  H   0.85444
 1284  C   1.08300   1.05870   1.02590   0.99524
 1285  H   0.84017
 1286  C   1.08031   0.76631   0.78596   0.79870
 1287  O   1.88386   1.53915   1.68019   1.53361
 1288  N   1.53646   1.17575   1.34786   1.43183
 1289  H   0.67322
 1290  C   1.05812   1.14245   0.97662   0.99799
 1291  H   0.81419
 1292  H   0.78765
 1293  C   1.07327   0.78349   0.75133   0.80154
 1294  O   1.87395   1.55177   1.39508   1.84388
 1295  N   1.53532   1.40736   1.37316   1.17668
 1296  H   0.64922
 1297  C   1.07463   1.00331   1.20038   0.87793
 1298  H   0.80958
 1299  H   0.79370
 1300  C   1.08152   0.77439   0.74536   0.80729
 1301  O   1.88286   1.52192   1.53280   1.73159
 1302  N   1.56503   1.44461   1.16650   1.26712
 1303  C   1.07048   1.06948   0.86834   1.05598
 1304  H   0.83688
 1305  H   0.83925
 1306  C   1.05722   1.04696   1.13808   1.05940
 1307  H   0.84603
 1308  H   0.80620
 1309  C   1.06100   1.08187   0.98345   1.17217
 1310  H   0.83501
 1311  H   0.81967
 1312  C   1.07345   1.05240   1.00089   0.86781
 1313  H   0.81330
 1314  C   1.08826   0.76350   0.76814   0.82859
 1315  O   1.88394   1.42709   1.43543   1.88338
 1316  N   1.54313   1.40351   1.48390   1.11753
 1317  H   0.64357
 1318  C   1.08218   1.04952   1.11417   0.89129
 1319  H   0.80078
 1320  H   0.78748
 1321  C   1.08835   0.82553   0.73023   0.77831
 1322  O   1.88489   1.70338   1.72972   1.32974
 1323  N   1.55109   1.23218   1.41111   1.34484
 1324  H   0.68805
 1325  C   1.07568   0.86023   1.06401   0.97853
 1326  H   0.82210
 1327  C   1.05962   1.16894   1.07556   0.97645
 1328  H   0.83467
 1329  H   0.83914
 1330  C   1.05817   1.13845   1.07479   1.02397
 1331  H   0.82450
 1332  H   0.87173
 1333  C   1.06376   1.08744   1.10000   0.78144
 1334  H   0.85065
 1335  H   0.81922
 1336  N   1.53281   1.62698   1.28987   1.09339
 1337  H   0.64876
 1338  C   0.97601   0.83628   0.80285   0.79453
 1339  N   1.50148   1.56331   1.25856   1.24811
 1340  H   0.67473
 1341  H   0.62637
 1342  N   1.50406   1.55704   1.35355   1.14113
 1343  H   0.64451
 1344  H   0.63721
 1345  C   1.08262   0.75728   0.77366   0.84385
 1346  O   1.88767   1.48032   1.64688   1.56779
 1347  N   1.54265   1.54529   1.19719   1.23956
 1348  H   0.67314
 1349  C   1.08987   1.00105   1.00991   0.92016
 1350  H   0.80184
 1351  C   1.08587   0.92926   0.92563   0.87820
 1352  H   0.85204
 1353  C   1.05847   1.09910   1.12771   1.20462
 1354  H   0.82468
 1355  H   0.83292
 1356  H   0.83167
 1357  O   1.84271   1.58487   1.64149   1.56924
 1358  H   0.62370
 1359  C   1.07897   0.81160   0.79091   0.76114
 1360  O   1.88695   1.53991   1.79326   1.37289
 1361  N   1.55260   1.32696   1.29554   1.37655
 1362  H   0.65214
 1363  C   1.07403   0.98866   0.92724   0.99344
 1364  H   0.81718
 1365  C   1.05777   1.09515   1.06815   1.08690
 1366  H   0.84148
 1367  H   0.82736
 1368  C   1.06143   0.97150   0.97514   1.05798
 1369  C   1.08296   0.97279   1.08010   0.99387
 1370  H   0.84402
 1371  C   1.08356   1.08308   0.99526   1.00847
 1372  H   0.80512
 1373  C   1.06609   0.82580   0.89624   0.91614
 1374  O   1.84132   1.46999   1.54105   1.69632
 1375  H   0.63987
 1376  C   1.07376   0.99011   1.09188   1.06945
 1377  H   0.84680
 1378  C   1.08140   1.06400   0.99910   0.99816
 1379  H   0.85843
 1380  C   1.08201   0.77622   0.73396   0.82097
 1381  O   1.88474   1.39056   1.55614   1.82937
 1382  N   1.55039   1.20072   1.60166   1.14809
 1383  H   0.66092
 1384  C   1.08715   1.11679   1.03463   0.83751
 1385  H   0.82113
 1386  C   1.08256   0.83229   0.89099   1.00028
 1387  H   0.86839
 1388  C   1.05717   1.09844   1.14095   1.18965
 1389  H   0.83094
 1390  H   0.84555
 1391  H   0.84152
 1392  O   1.84700   1.32404   1.76623   1.66697
 1393  H   0.61648
 1394  C   1.08218   0.82822   0.76387   0.79215
 1395  O   1.88733   1.29211   1.70649   1.67741
 1396  N   1.54292   1.22799   1.27084   1.47585
 1397  H   0.64924
 1398  C   1.07059   0.98353   1.04054   1.07623
 1399  H   0.84390
 1400  H   0.80861
 1401  C   1.07045   0.85103   0.72007   0.75163
 1402  O   1.88496   1.70101   1.45760   1.55971
 1403  N   1.55352   1.14720   1.51366   1.33249
 1404  H   0.67988
 1405  C   1.07058   0.82938   0.98726   1.12846
 1406  H   0.81466
 1407  C   1.05336   1.16424   0.99030   1.05268
 1408  H   0.83912
 1409  H   0.83660
 1410  C   1.05980   1.20569   1.01218   1.13819
 1411  H   0.84232
 1412  H   0.82595
 1413  C   1.06707   0.72370   0.72091   0.72841
 1414  O   1.88779   1.47293   1.82288   1.63563
 1415  O   1.88500   1.51750   1.58655   1.81414
 1416  C   1.08673   0.77116   0.86236   0.75463
 1417  O   1.88733   1.64848   1.65286   1.40920
 1418  N   1.54587   1.31028   1.19206   1.47857
 1419  H   0.65336
 1420  C   1.07214   1.06275   0.88106   1.00757
 1421  H   0.84343
 1422  C   1.05450   1.01872   1.03242   0.97100
 1423  H   0.83643
 1424  C   1.05590   1.17744   1.04856   1.19327
 1425  H   0.84527
 1426  H   0.83580
 1427  H   0.83801
 1428  C   1.05455   1.18134   1.16759   1.06137
 1429  H   0.84088
 1430  H   0.83976
 1431  H   0.85185
 1432  C   1.07574   0.77110   0.73158   0.84225
 1433  O   1.88367   1.36389   1.63730   1.76954
 1434  N   1.53828   1.27315   1.47279   1.21106
 1435  H   0.66885
 1436  C   1.07711   1.00732   1.05476   0.86817
 1437  H   0.82270
 1438  C   1.06067   1.02653   1.01602   0.97691
 1439  H   0.84040
 1440  C   1.05419   1.18423   1.09821   1.12139
 1441  H   0.84087
 1442  H   0.84061
 1443  H   0.85080
 1444  C   1.05734   1.18971   1.16649   1.05236
 1445  H   0.84637
 1446  H   0.83526
 1447  H   0.83897
 1448  C   1.08154   0.80668   0.78640   0.75128
 1449  O   1.88318   1.81149   1.47315   1.46008
 1450  N   1.53603   1.23692   1.43138   1.31668
 1451  H   0.66474
 1452  C   1.07957   0.90424   0.96828   1.14834
 1453  H   0.80524
 1454  C   1.07972   0.93536   0.82447   0.98298
 1455  H   0.86689
 1456  C   1.05745   1.09499   1.13578   1.19622
 1457  H   0.82487
 1458  H   0.82210
 1459  H   0.84125
 1460  O   1.84755   1.47779   1.49415   1.78192
 1461  H   0.64875
 1462  C   1.07067   0.75372   0.82639   0.79813
 1463  O   1.88056   1.50708   1.88257   1.36424
 1464  N   1.53716   1.55026   1.12176   1.29446
 1465  H   0.65709
 1466  C   1.05410   1.16777   0.87314   1.13584
 1467  H   0.83018
 1468  H   0.83674
 1469  H   0.85125
 1470  H   0.82729
 1471  C   1.10850   0.72194   0.77564   0.90303
 1472  O   1.87918   1.50018   1.39719   1.89103
 1473  N   1.54808   1.50775   1.35867   1.13690
 1474  H   0.67064
 1475  C   1.07821   1.08327   1.04085   0.80198
 1476  H   0.80367
 1477  C   1.05901   1.13415   0.99952   1.10163
 1478  H   0.81854
 1479  H   0.82211
 1480  C   1.06594   0.97595   0.99298   1.00554
 1481  C   1.08233   0.99070   1.02466   1.00447
 1482  H   0.83753
 1483  C   1.07638   1.10518   1.04976   1.06616
 1484  H   0.82029
 1485  C   1.07258   0.88647   0.88191   0.87958
 1486  O   1.83869   1.35508   1.61295   1.73272
 1487  H   0.61905
 1488  C   1.07844   0.98866   1.10007   1.09713
 1489  H   0.82137
 1490  C   1.08806   1.07823   0.97899   0.96916
 1491  H   0.83559
 1492  C   1.08082   0.79993   0.76890   0.79200
 1493  O   1.88631   1.81381   1.69953   1.28026
 1494  N   1.53471   1.25586   1.50888   1.18461
 1495  H   0.67097
 1496  C   1.06143   0.92030   1.08960   1.16682
 1497  H   0.83430
 1498  H   0.82969
 1499  H   0.83844
 1500  H   0.82482
 1501  C   1.10804   0.78634   0.88374   0.71616
 1502  O   1.88011   1.43051   1.87065   1.50910
 1503  N   1.55068   1.37512   1.18532   1.44526
 1504  H   0.64439
 1505  C   1.07866   0.96576   0.86326   1.12908
 1506  H   0.81499
 1507  C   1.05975   0.97984   0.99664   1.07642
 1508  H   0.84631
 1509  C   1.05207   1.15828   1.06267   1.17609
 1510  H   0.84454
 1511  H   0.84458
 1512  H   0.84169
 1513  C   1.04784   0.99995   1.12970   1.08491
 1514  H   0.86690
 1515  H   0.85345
 1516  C   1.04906   1.11602   1.12951   1.14954
 1517  H   0.85885
 1518  H   0.85742
 1519  H   0.84098
 1520  C   1.07241   0.85958   0.73798   0.75026
 1521  O   1.87627   1.57603   1.55601   1.67379
 1522  N   1.54217   1.18499   1.41741   1.37462
 1523  H   0.66201
 1524  C   1.07135   0.87894   1.16328   1.10827
 1525  H   0.84316
 1526  H   0.83222
 1527  H   0.83419
 1528  H   0.82776
 1529  C   1.10753   0.84811   0.73331   0.82110
 1530  O   1.88535   1.81617   1.62618   1.36652
 1531  N   1.53781   1.25353   1.40310   1.30530
 1532  H   0.64800
 1533  C   1.05919   0.89155   1.04092   1.02457
 1534  H   0.81846
 1535  C   1.06072   1.03235   1.11512   1.11450
 1536  H   0.82495
 1537  H   0.84736
 1538  C   1.04443   0.99003   0.96284   1.05984
 1539  H   0.88080
 1540  C   1.05453   1.16245   1.06841   1.18086
 1541  H   0.83919
 1542  H   0.84774
 1543  H   0.85327
 1544  C   1.05257   1.12340   1.17313   1.10752
 1545  H   0.85718
 1546  H   0.84659
 1547  H   0.84164
 1548  C   1.07868   0.72914   0.86468   0.77471
 1549  O   1.88183   1.57599   1.45150   1.73545
 1550  N   1.54018   1.57295   1.21280   1.19386
 1551  H   0.66016
 1552  C   1.07178   1.01867   0.93524   0.96168
 1553  H   0.81149
 1554  C   1.05667   1.17076   1.07934   0.99177
 1555  H   0.82413
 1556  H   0.82655
 1557  C   1.05681   1.13006   1.08797   1.03630
 1558  H   0.85322
 1559  H   0.82389
 1560  C   1.06363   1.15820   0.94494   0.90200
 1561  H   0.81618
 1562  H   0.83568
 1563  N   1.52414   1.16142   1.42470   1.39822
 1564  H   0.63969
 1565  C   0.99144   0.79126   0.81238   0.81843
 1566  N   1.51719   1.11645   1.46801   1.48663
 1567  H   0.65575
 1568  H   0.63929
 1569  N   1.50866   1.25120   1.39996   1.41135
 1570  H   0.64194
 1571  H   0.64050
 1572  C   1.08185   0.87189   0.77061   0.74359
 1573  O   1.88711   1.61011   1.60132   1.53092
 1574  N   1.53968   1.17469   1.27114   1.51452
 1575  H   0.65657
 1576  C   1.07442   0.85663   1.08647   1.03934
 1577  H   0.82227
 1578  C   1.06143   1.16429   1.09859   0.98371
 1579  H   0.84182
 1580  H   0.83856
 1581  C   1.04760   1.08147   0.95970   0.94857
 1582  H   0.86919
 1583  C   1.05595   1.17122   1.16340   1.07759
 1584  H   0.85427
 1585  H   0.86047
 1586  H   0.84685
 1587  C   1.05677   1.15724   1.09281   1.15841
 1588  H   0.85055
 1589  H   0.86015
 1590  H   0.84703
 1591  C   1.08277   0.71493   0.76187   0.70262
 1592  O   1.88395   1.46805   1.87009   1.62400
 1593  O   1.88776   1.54611   1.59288   1.80208

 **********************
 *                    *
 * JOB ENDED NORMALLY *
 *                    *
 **********************



 TOTAL JOB TIME:          2961.53 SECONDS

 == MOPAC DONE ==
