 *******************************************************************************
 **                                                                           **
 **                              MOPAC v23.2.2                                **
 **                                                                           **
 *******************************************************************************
 **          Digital Object Identifier (DOI): 10.5281/zenodo.6511958          **
 **    Visit the DOI location for information on how to cite this program.    **
 *******************************************************************************

                              PM7 CALCULATION RESULTS

 *******************************************************************************
 *  CALCULATION DONE: (MAX THREADS = 24)             Thu Jan 22 20:27:51 2026  *
 *  PM7        - The PM7 Hamiltonian to be used
 *
 *
 *
 *                 CHARGE ON SYSTEM = +2
 *
 *
 *
 *  EPS=78.4   - USE ANDREAS KLAMT'S COSMO IMPLICIT SOLVATION MODEL
 *  XYZ        - CARTESIAN COORDINATE SYSTEM TO BE USED
 *  1SCF       - DO 1 SCF AND THEN STOP 
 *  T=         - A TIME OF 172800.0 SECONDS REQUESTED
 *  DUMP=N     - RESTART FILE WRITTEN EVERY 7200.0 SECONDS REQUESTED
 *******************************************************************************
PM7 1SCF XYZ CHARGE=2 EPS=78.4


   ATOM   CHEMICAL          X               Y               Z
  NUMBER   SYMBOL      (ANGSTROMS)     (ANGSTROMS)     (ANGSTROMS)

     1       H         71.69100000  *  165.23700000  * -45.36000000  *
     2       C         70.72700000  *  165.64400000  * -45.02500000  *
     3       O         70.67100000  *  166.69300000  * -44.40000000  *
     4       N         69.64800000  *  164.94600000  * -45.35400000  *
     5       H         69.74300000  *  164.08600000  * -45.86500000  *
     6       C         68.31800000  *  165.37700000  * -44.95100000  *
     7       H         68.30400000  *  166.44500000  * -44.75000000  *
     8       C         67.27900000  *  165.08100000  * -46.05800000  *
     9       H         67.27200000  *  164.02200000  * -46.29800000  *
    10       C         65.89200000  *  165.46600000  * -45.59200000  *
    11       H         65.46400000  *  166.22900000  * -46.24500000  *
    12       H         65.23700000  *  164.60600000  * -45.62700000  *
    13       H         65.87600000  *  165.89500000  * -44.58400000  *
    14       C         67.63700000  *  165.85600000  * -47.31700000  *
    15       H         68.59400000  *  165.52900000  * -47.70800000  *
    16       H         66.87900000  *  165.66900000  * -48.07700000  *
    17       H         67.68800000  *  166.92100000  * -47.10100000  *
    18       C         67.91500000  *  164.66400000  * -43.65700000  *
    19       O         67.55300000  *  165.30600000  * -42.67600000  *
    20       N         67.98400000  *  163.33800000  * -43.65800000  *
    21       H         68.28400000  *  162.85200000  * -44.48600000  *
    22       C         67.62300000  *  162.54400000  * -42.48700000  *
    23       H         67.90600000  *  163.07600000  * -41.58100000  *
    24       C         66.12800000  *  162.23500000  * -42.45900000  *
    25       H         65.92600000  *  161.47400000  * -43.20900000  *
    26       H         65.88500000  *  161.80700000  * -41.48800000  *
    27       C         65.21300000  *  163.39800000  * -42.74000000  *
    28       H         65.33100000  *  164.15700000  * -41.96400000  *
    29       H         65.45900000  *  163.81400000  * -43.69700000  *
    30       C         63.76600000  *  162.97200000  * -42.82400000  *
    31       O         63.44700000  *  162.11400000  * -43.67900000  *
    32       O         62.94800000  *  163.49400000  * -42.03400000  *
    33       C         68.34700000  *  161.22200000  * -42.57700000  *
    34       O         68.73000000  *  160.78800000  * -43.66100000  *
    35       N         68.52400000  *  160.57500000  * -41.43500000  *
    36       H         68.03000000  *  160.89100000  * -40.60600000  *
    37       C         69.17300000  *  159.28200000  * -41.42100000  *
    38       H         69.95100000  *  159.22100000  * -42.17800000  *
    39       C         69.75600000  *  159.01000000  * -40.03200000  *
    40       H         70.21900000  *  159.94300000  * -39.71800000  *
    41       H         68.96300000  *  158.79100000  * -39.31600000  *
    42       C         70.79800000  *  157.89600000  * -39.98300000  *
    43       H         70.31100000  *  156.94100000  * -40.17400000  *
    44       H         71.53800000  *  158.07300000  * -40.76900000  *
    45       C         71.50100000  *  157.83200000  * -38.61800000  *
    46       H         70.74900000  *  157.59000000  * -37.86000000  *
    47       H         72.23100000  *  157.01800000  * -38.63800000  *
    48       C         72.18600000  *  159.16200000  * -38.26900000  *
    49       H         72.83200000  *  159.42500000  * -39.10900000  *
    50       H         71.41200000  *  159.93100000  * -38.15600000  *
    51       N         73.00000000  *  159.10500000  * -37.02500000  *
    52       H         73.70000000  *  158.37000000  * -37.07400000  *
    53       H         73.43800000  *  159.98800000  * -36.79300000  *
    54       H         72.39100000  *  158.85400000  * -36.25100000  *
    55       C         68.06200000  *  158.28700000  * -41.74800000  *
    56       O         67.16300000  *  158.08100000  * -40.94600000  *
    57       N         68.06900000  *  157.75200000  * -42.96900000  *
    58       H         68.88000000  *  157.93200000  * -43.54000000  *
    59       C         67.10000000  *  156.75500000  * -43.45200000  *
    60       H         66.11000000  *  157.21500000  * -43.47600000  *
    61       C         67.47000000  *  156.30800000  * -44.88600000  *
    62       H         68.54900000  *  156.38900000  * -45.01100000  *
    63       C         67.09000000  *  154.86000000  * -45.20500000  *
    64       H         66.04000000  *  154.68300000  * -44.98100000  *
    65       H         67.29400000  *  154.66300000  * -46.25200000  *
    66       H         67.69700000  *  154.17200000  * -44.62100000  *
    67       C         66.80700000  *  157.26600000  * -45.88600000  *
    68       H         65.72600000  *  157.13600000  * -45.85700000  *
    69       H         67.02900000  *  158.27200000  * -45.54900000  *
    70       C         67.29500000  *  157.11200000  * -47.33400000  *
    71       H         66.88800000  *  156.20900000  * -47.78200000  *
    72       H         66.96300000  *  157.96300000  * -47.92400000  *
    73       H         68.38100000  *  157.06800000  * -47.36500000  *
    74       C         66.99800000  *  155.57700000  * -42.48600000  *
    75       O         65.89700000  *  155.17700000  * -42.10200000  *
    76       N         68.14500000  *  155.01500000  * -42.10600000  *
    77       H         69.02400000  *  155.39000000  * -42.44600000  *
    78       C         68.18100000  *  153.84300000  * -41.25100000  *
    79       H         67.74800000  *  154.10200000  * -40.28400000  *
    80       H         67.57700000  *  153.05300000  * -41.69700000  *
    81       C         69.58000000  *  153.29900000  * -41.01500000  *
    82       O         70.58700000  *  153.78000000  * -41.54200000  *
    83       N         69.60400000  *  152.27100000  * -40.18300000  *
    84       H         68.72000000  *  151.92800000  * -39.83300000  *
    85       C         70.80300000  *  151.68400000  * -39.60800000  *
    86       H         71.65200000  *  152.34900000  * -39.77300000  *
    87       C         70.58400000  *  151.55400000  * -38.09200000  *
    88       H         69.74400000  *  150.88700000  * -37.89800000  *
    89       H         71.48500000  *  151.13600000  * -37.66200000  *
    90       C         70.33100000  *  152.91500000  * -37.41700000  *
    91       H         71.16600000  *  153.58100000  * -37.64900000  *
    92       H         69.42600000  *  153.36800000  * -37.82700000  *
    93       C         70.16400000  *  152.79300000  * -35.89500000  *
    94       O         69.26100000  *  152.05800000  * -35.43200000  *
    95       O         70.90100000  *  153.47600000  * -35.14800000  *
    96       C         71.08700000  *  150.35500000  * -40.32500000  *
    97       O         70.43900000  *  149.33700000  * -40.06800000  *
    98       N         71.95900000  *  150.41300000  * -41.33600000  *
    99       H         72.51900000  *  151.24900000  * -41.44900000  *
   100       C         72.05200000  *  149.40800000  * -42.39600000  *
   101       H         71.04700000  *  149.08900000  * -42.67000000  *
   102       H         72.49700000  *  149.88300000  * -43.27100000  *
   103       C         72.87300000  *  148.15700000  * -42.06500000  *
   104       O         73.36000000  *  147.95800000  * -40.95500000  *
   105       N         73.06100000  *  147.31400000  * -43.08300000  *
   106       H         72.60900000  *  147.52100000  * -43.96500000  *
   107       C         73.86800000  *  146.07600000  * -43.05400000  *
   108       H         73.61000000  *  145.49900000  * -42.16500000  *
   109       C         73.54900000  *  145.22100000  * -44.29300000  *
   110       H         74.29000000  *  144.42800000  * -44.40300000  *
   111       C         72.16700000  *  144.58800000  * -44.19100000  *
   112       H         71.39700000  *  145.35900000  * -44.13700000  *
   113       H         71.99600000  *  143.96200000  * -45.06600000  *
   114       H         72.13500000  *  143.95800000  * -43.30300000  *
   115       O         73.57000000  *  146.05100000  * -45.42800000  *
   116       H         73.10900000  *  145.58400000  * -46.16300000  *
   117       C         75.38300000  *  146.30400000  * -43.02100000  *
   118       O         76.09200000  *  145.47200000  * -42.46200000  *
   119       N         75.86700000  *  147.42300000  * -43.57800000  *
   120       H         75.20000000  *  147.99500000  * -44.07000000  *
   121       C         77.29900000  *  147.74300000  * -43.75100000  *
   122       H         77.90100000  *  147.07200000  * -43.13600000  *
   123       C         77.69400000  *  147.52400000  * -45.22400000  *
   124       H         77.08800000  *  148.17200000  * -45.85800000  *
   125       H         78.73600000  *  147.81300000  * -45.36200000  *
   126       C         77.57300000  *  146.09700000  * -45.70200000  *
   127       C         78.54500000  *  145.16100000  * -45.31000000  *
   128       H         79.38500000  *  145.47200000  * -44.70000000  *
   129       C         78.41300000  *  143.81700000  * -45.69000000  *
   130       H         79.15700000  *  143.10500000  * -45.37200000  *
   131       C         77.30200000  *  143.40800000  * -46.46000000  *
   132       O         77.13300000  *  142.09800000  * -46.76100000  *
   133       H         77.68100000  *  141.55100000  * -46.16800000  *
   134       C         76.34800000  *  144.35400000  * -46.88400000  *
   135       H         75.49200000  *  144.03900000  * -47.46100000  *
   136       C         76.49300000  *  145.70200000  * -46.51300000  *
   137       H         75.75300000  *  146.42600000  * -46.82200000  *
   138       C         77.69000000  *  149.17600000  * -43.34500000  *
   139       O         78.82900000  *  149.58000000  * -43.57000000  *
   140       N         76.77500000  *  149.96300000  * -42.77300000  *
   141       H         75.86900000  *  149.58400000  * -42.54100000  *
   142       C         77.00000000  *  151.37800000  * -42.46100000  *
   143       H         77.55300000  *  151.46300000  * -41.52900000  *
   144       H         77.60600000  *  151.82200000  * -43.24200000  *
   145       C         75.69500000  *  152.16300000  * -42.32800000  *
   146       O         74.63500000  *  151.56700000  * -42.11800000  *
   147       N         75.75500000  *  153.49500000  * -42.44900000  *
   148       H         76.58800000  *  153.89400000  * -42.85900000  *
   149       C         74.59200000  *  154.32600000  * -42.21200000  *
   150       H         73.82600000  *  153.78000000  * -41.65800000  *
   151       C         74.95900000  *  155.54800000  * -41.37000000  *
   152       H         75.70700000  *  156.13900000  * -41.89300000  *
   153       C         73.73100000  *  156.40900000  * -41.13300000  *
   154       H         72.94300000  *  155.80300000  * -40.68200000  *
   155       H         73.98600000  *  157.21200000  * -40.45000000  *
   156       H         73.36800000  *  156.84900000  * -42.06500000  *
   157       C         75.54500000  *  155.09600000  * -40.05300000  *
   158       H         76.46000000  *  154.52800000  * -40.19800000  *
   159       H         75.77700000  *  155.95300000  * -39.42300000  *
   160       H         74.80500000  *  154.48400000  * -39.53200000  *
   161       C         74.01900000  *  154.79200000  * -43.53700000  *
   162       O         74.76100000  *  155.18400000  * -44.43700000  *
   163       N         72.69900000  *  154.65600000  * -43.67400000  *
   164       H         72.15900000  *  154.32400000  * -42.88100000  *
   165       C         71.94700000  *  155.12100000  * -44.83900000  *
   166       H         72.62900000  *  155.20500000  * -45.68200000  *
   167       C         70.82300000  *  154.14800000  * -45.24100000  *
   168       H         69.98000000  *  154.26900000  * -44.56300000  *
   169       C         70.36400000  *  154.46900000  * -46.67000000  *
   170       H         71.18700000  *  154.33600000  * -47.37100000  *
   171       H         69.54800000  *  153.80700000  * -46.95600000  *
   172       H         70.01200000  *  155.49600000  * -46.73600000  *
   173       C         71.26400000  *  152.68200000  * -45.17300000  *
   174       H         72.21900000  *  152.57000000  * -45.67400000  *
   175       H         71.36300000  *  152.37500000  * -44.13100000  *
   176       H         70.51900000  *  152.04300000  * -45.64700000  *
   177       C         71.36700000  *  156.49300000  * -44.53000000  *
   178       O         70.64900000  *  156.64000000  * -43.53700000  *
   179       N         71.62500000  *  157.49000000  * -45.37400000  *
   180       H         72.23900000  *  157.32200000  * -46.16900000  *
   181       C         71.01800000  *  158.79600000  * -45.21900000  *
   182       H         70.37900000  *  158.84300000  * -44.33800000  *
   183       C         72.10000000  *  159.86100000  * -45.06900000  *
   184       H         72.79900000  *  159.78100000  * -45.90500000  *
   185       H         71.63400000  *  160.84400000  * -45.14300000  *
   186       C         72.87100000  *  159.84300000  * -43.76800000  *
   187       C         72.34700000  *  160.43100000  * -42.61900000  *
   188       H         71.37700000  *  160.90600000  * -42.66800000  *
   189       C         73.06400000  *  160.45200000  * -41.42500000  *
   190       H         72.63300000  *  160.94600000  * -40.56800000  *
   191       C         74.33000000  *  159.87400000  * -41.37100000  *
   192       O         75.04700000  *  159.90100000  * -40.18700000  *
   193       H         74.69700000  *  160.54100000  * -39.56800000  *
   194       C         74.87500000  *  159.27800000  * -42.50300000  *
   195       H         75.78500000  *  158.71900000  * -42.41900000  *
   196       C         74.14000000  *  159.26700000  * -43.69600000  *
   197       H         74.51800000  *  158.73300000  * -44.56500000  *
   198       C         70.16700000  *  159.17400000  * -46.42900000  *
   199       O         70.41800000  *  158.72400000  * -47.55600000  *
   200       N         69.02400000  *  159.82600000  * -46.20900000  *
   201       H         68.83500000  *  160.12600000  * -45.25900000  *
   202       C         68.29800000  *  160.51900000  * -47.27500000  *
   203       H         68.27600000  *  159.91800000  * -48.18600000  *
   204       C         66.86100000  *  160.87900000  * -46.84100000  *
   205       H         66.31900000  *  159.97200000  * -46.59100000  *
   206       H         66.89300000  *  161.51100000  * -45.95200000  *
   207       C         66.06800000  *  161.59200000  * -47.94900000  *
   208       H         66.55400000  *  162.53500000  * -48.20600000  *
   209       H         66.04600000  *  160.95700000  * -48.83500000  *
   210       C         64.63000000  *  161.87600000  * -47.48400000  *
   211       H         64.16800000  *  160.94700000  * -47.14500000  *
   212       H         64.65800000  *  162.57400000  * -46.64700000  *
   213       C         63.79500000  *  162.46600000  * -48.62900000  *
   214       H         64.31700000  *  163.34100000  * -49.02900000  *
   215       H         63.72700000  *  161.71800000  * -49.42700000  *
   216       N         62.43200000  *  162.85500000  * -48.17800000  *
   217       H         62.46900000  *  163.56800000  * -47.46200000  *
   218       H         61.88700000  *  163.23200000  * -48.94200000  *
   219       H         61.92500000  *  162.06800000  * -47.79900000  *
   220       C         69.12500000  *  161.75900000  * -47.50300000  *
   221       O         69.37800000  *  162.48400000  * -46.54300000  *
   222       N         69.55500000  *  162.00600000  * -48.72500000  *
   223       H         69.34400000  *  161.34200000  * -49.46700000  *
   224       C         70.34900000  *  163.18200000  * -49.01700000  *
   225       H         70.22500000  *  163.93500000  * -48.24000000  *
   226       C         71.81400000  *  162.79200000  * -49.07000000  *
   227       H         71.97800000  *  162.06700000  * -49.86400000  *
   228       H         72.42900000  *  163.67700000  * -49.23900000  *
   229       H         72.10500000  *  162.33200000  * -48.12600000  *
   230       C         69.94400000  *  163.83800000  * -50.32200000  *
   231       O         69.22100000  *  163.25100000  * -51.12800000  *
   232       N         70.40700000  *  165.06400000  * -50.52400000  *
   233       H         70.93200000  *  165.53000000  * -49.79600000  *
   234       C         70.10800000  *  165.77900000  * -51.74600000  *
   235       H         69.54100000  *  165.15900000  * -52.44400000  *
   236       H         69.52200000  *  166.69100000  * -51.53000000  *
   237       H         71.05900000  *  166.04700000  * -52.23900000  *
   238       H         68.08600000  *  164.80700000  * -56.55000000  *
   239       C         68.21200000  *  164.39600000  * -55.53600000  *
   240       O         69.28600000  *  164.50800000  * -54.94200000  *
   241       N         67.13500000  *  163.82300000  * -55.01100000  *
   242       H         66.34000000  *  163.66800000  * -55.61500000  *
   243       C         67.13600000  *  163.21200000  * -53.68800000  *
   244       H         67.86300000  *  163.70700000  * -53.05000000  *
   245       C         65.75500000  *  163.32300000  * -53.02900000  *
   246       H         64.97700000  *  163.06900000  * -53.75000000  *
   247       C         65.64800000  *  162.36600000  * -51.85200000  *
   248       H         66.47200000  *  162.51800000  * -51.15200000  *
   249       H         64.69700000  *  162.53800000  * -51.34700000  *
   250       H         65.65200000  *  161.33900000  * -52.20000000  *
   251       C         65.54000000  *  164.75000000  * -52.56600000  *
   252       H         65.62600000  *  165.42400000  * -53.41600000  *
   253       H         64.53500000  *  164.85100000  * -52.15900000  *
   254       H         66.28400000  *  165.00300000  * -51.81000000  *
   255       C         67.52600000  *  161.76000000  * -53.84700000  *
   256       O         66.97900000  *  161.02800000  * -54.68200000  *
   257       N         68.49600000  *  161.34900000  * -53.04800000  *
   258       H         68.91100000  *  161.99700000  * -52.39100000  *
   259       C         69.01100000  *  159.99200000  * -53.10200000  *
   260       H         68.34600000  *  159.34100000  * -53.67900000  *
   261       C         70.37400000  *  159.97400000  * -53.81600000  *
   262       H         70.77500000  *  158.96500000  * -53.87500000  *
   263       C         70.21400000  *  160.50700000  * -55.21300000  *
   264       H         69.95700000  *  161.56600000  * -55.19000000  *
   265       H         71.15100000  *  160.39100000  * -55.75600000  *
   266       H         69.44200000  *  159.95000000  * -55.73600000  *
   267       C         71.37900000  *  160.85000000  * -53.05700000  *
   268       H         71.56500000  *  160.44500000  * -52.06400000  *
   269       H         72.31500000  *  160.84900000  * -53.61300000  *
   270       H         71.03600000  *  161.88400000  * -52.98400000  *
   271       C         69.19200000  *  159.37200000  * -51.72900000  *
   272       O         69.02000000  *  160.03600000  * -50.68600000  *
   273       N         69.39000000  *  158.06000000  * -51.70900000  *
   274       H         69.46800000  *  157.57000000  * -52.59600000  *
   275       C         69.75900000  *  157.31700000  * -50.52000000  *
   276       H         69.47300000  *  157.87200000  * -49.62900000  *
   277       C         69.00000000  *  155.99700000  * -50.50500000  *
   278       H         69.21900000  *  155.44100000  * -51.41500000  *
   279       H         69.29700000  *  155.40800000  * -49.63700000  *
   280       H         67.93100000  *  156.19900000  * -50.45300000  *
   281       C         71.27800000  *  157.13800000  * -50.53800000  *
   282       O         71.81600000  *  156.45600000  * -51.41700000  *
   283       N         71.97000000  *  157.79100000  * -49.60300000  *
   284       H         71.44500000  *  158.28300000  * -48.88900000  *
   285       C         73.41300000  *  157.73400000  * -49.53500000  *
   286       H         73.80300000  *  157.43200000  * -50.50200000  *
   287       C         73.96100000  *  159.11400000  * -49.18200000  *
   288       H         73.49200000  *  159.84000000  * -49.85100000  *
   289       H         73.62800000  *  159.35800000  * -48.16900000  *
   290       C         75.47300000  *  159.31600000  * -49.26600000  *
   291       H         75.96900000  *  158.63700000  * -48.57100000  *
   292       C         75.94900000  *  159.02000000  * -50.68400000  *
   293       H         75.44100000  *  159.71800000  * -51.34800000  *
   294       H         77.02400000  *  159.18800000  * -50.76300000  *
   295       H         75.74700000  *  157.98700000  * -50.96800000  *
   296       C         75.80400000  *  160.74000000  * -48.87900000  *
   297       H         75.43700000  *  160.94600000  * -47.87600000  *
   298       H         76.88200000  *  160.87900000  * -48.92200000  *
   299       H         75.32000000  *  161.42900000  * -49.57600000  *
   300       C         73.82100000  *  156.71600000  * -48.48500000  *
   301       O         73.39600000  *  156.78100000  * -47.33400000  *
   302       N         74.64300000  *  155.75000000  * -48.88700000  *
   303       H         74.88100000  *  155.73100000  * -49.87600000  *
   304       C         75.13600000  *  154.63800000  * -48.06500000  *
   305       H         74.61500000  *  154.61100000  * -47.10600000  *
   306       C         74.86800000  *  153.33100000  * -48.84600000  *
   307       H         74.43500000  *  153.57700000  * -49.81600000  *
   308       H         75.80400000  *  152.80500000  * -49.04200000  *
   309       C         73.89600000  *  152.35300000  * -48.18800000  *
   310       H         73.03500000  *  152.89600000  * -47.80000000  *
   311       H         73.54200000  *  151.68800000  * -48.97500000  *
   312       C         74.56000000  *  151.52200000  * -47.07500000  *
   313       H         75.54200000  *  151.17600000  * -47.40400000  *
   314       H         74.70600000  *  152.15600000  * -46.19700000  *
   315       C         73.70700000  *  150.30200000  * -46.68700000  *
   316       H         74.16300000  *  149.82900000  * -45.81100000  *
   317       H         72.70900000  *  150.64500000  * -46.39300000  *
   318       N         73.60200000  *  149.31700000  * -47.80100000  *
   319       H         74.50600000  *  148.96300000  * -48.08700000  *
   320       H         73.02600000  *  148.50600000  * -47.54200000  *
   321       H         73.15000000  *  149.72400000  * -48.61100000  *
   322       C         76.62600000  *  154.85000000  * -47.79900000  *
   323       O         77.41900000  *  154.68600000  * -48.71700000  *
   324       N         77.01700000  *  155.22600000  * -46.58100000  *
   325       H         76.29800000  *  155.26800000  * -45.86500000  *
   326       C         78.42200000  *  155.28900000  * -46.15900000  *
   327       H         79.06600000  *  155.59300000  * -46.98900000  *
   328       C         78.56700000  *  156.26000000  * -44.97900000  *
   329       H         78.02700000  *  155.87500000  * -44.10900000  *
   330       H         79.62500000  *  156.33900000  * -44.73000000  *
   331       C         78.01500000  *  157.64300000  * -45.34000000  *
   332       H         78.45100000  *  157.95800000  * -46.27300000  *
   333       H         76.93600000  *  157.57500000  * -45.50000000  *
   334       C         78.25100000  *  158.72500000  * -44.27900000  *
   335       H         77.97800000  *  159.68000000  * -44.73200000  *
   336       H         77.56000000  *  158.53300000  * -43.46900000  *
   337       C         79.67700000  *  158.85000000  * -43.70900000  *
   338       H         80.38400000  *  158.36300000  * -44.39700000  *
   339       H         79.95000000  *  159.91100000  * -43.68600000  *
   340       N         79.78800000  *  158.26900000  * -42.33500000  *
   341       H         79.63700000  *  157.26100000  * -42.37000000  *
   342       H         80.69600000  *  158.42600000  * -41.93200000  *
   343       H         79.10400000  *  158.64600000  * -41.70100000  *
   344       C         78.82300000  *  153.89100000  * -45.72900000  *
   345       O         78.09100000  *  153.31500000  * -44.93700000  *
   346       N         79.90700000  *  153.32000000  * -46.24700000  *
   347       H         80.40500000  *  153.76400000  * -47.01000000  *
   348       C         80.34300000  *  152.02200000  * -45.76800000  *
   349       H         79.49500000  *  151.49800000  * -45.35900000  *
   350       C         80.94400000  *  151.18600000  * -46.89500000  *
   351       H         81.78600000  *  151.78200000  * -47.16900000  *
   352       C         81.42400000  *  149.85200000  * -46.34500000  *
   353       H         80.65600000  *  149.35200000  * -45.75200000  *
   354       H         81.67900000  *  149.19900000  * -47.17900000  *
   355       H         82.34500000  *  149.95700000  * -45.76100000  *
   356       C         79.89700000  *  150.97600000  * -47.99700000  *
   357       H         79.60200000  *  151.87000000  * -48.50000000  *
   358       H         80.28300000  *  150.30500000  * -48.75000000  *
   359       C         78.59100000  *  150.36100000  * -47.52600000  *
   360       H         78.17700000  *  150.90100000  * -46.69000000  *
   361       H         77.89400000  *  150.33700000  * -48.36300000  *
   362       H         78.77100000  *  149.33300000  * -47.20900000  *
   363       C         81.33300000  *  152.07100000  * -44.61400000  *
   364       O         82.16700000  *  152.98000000  * -44.51900000  *
   365       N         81.21100000  *  151.07100000  * -43.74300000  *
   366       H         80.50300000  *  150.36100000  * -43.92800000  *
   367       C         82.04400000  *  150.90200000  * -42.55200000  *
   368       H         81.47500000  *  151.18100000  * -41.66300000  *
   369       H         82.35800000  *  149.86100000  * -42.45900000  *
   370       H         82.94700000  *  151.51400000  * -42.62000000  *
   371       H         81.25700000  *  144.04600000  * -57.89900000  *
   372       C         80.50000000  *  144.84100000  * -57.88800000  *
   373       O         79.71500000  *  144.99000000  * -58.82400000  *
   374       N         80.49900000  *  145.60300000  * -56.79700000  *
   375       H         81.28000000  *  145.52500000  * -56.16600000  *
   376       C         79.57000000  *  146.70600000  * -56.61200000  *
   377       H         78.57500000  *  146.34400000  * -56.42300000  *
   378       C         80.00500000  *  147.61000000  * -55.44200000  *
   379       H         80.89800000  *  148.18000000  * -55.68500000  *
   380       C         78.90600000  *  148.60800000  * -55.12500000  *
   381       H         77.92000000  *  148.14100000  * -55.17600000  *
   382       H         79.04500000  *  148.98700000  * -54.11600000  *
   383       H         78.93800000  *  149.43600000  * -55.83300000  *
   384       C         80.32100000  *  146.76200000  * -54.20900000  *
   385       H         81.19200000  *  146.13400000  * -54.40600000  *
   386       H         80.59400000  *  147.42200000  * -53.38900000  *
   387       C         79.18400000  *  145.87900000  * -53.76500000  *
   388       H         78.77800000  *  145.31100000  * -54.59400000  *
   389       H         79.50900000  *  145.12200000  * -53.06500000  *
   390       H         78.38800000  *  146.48300000  * -53.33500000  *
   391       C         79.54300000  *  147.54500000  * -57.87900000  *
   392       O         78.48200000  *  147.77900000  * -58.45100000  *
   393       N         80.72300000  *  147.98900000  * -58.30900000  *
   394       H         81.55800000  *  147.70100000  * -57.81200000  *
   395       C         80.85900000  *  148.80400000  * -59.51100000  *
   396       H         80.33900000  *  149.74600000  * -59.38600000  *
   397       H         81.92800000  *  148.98500000  * -59.72900000  *
   398       H         80.37800000  *  148.32200000  * -60.38100000  *
   399       H         78.96400000  *  146.08700000  * -61.65600000  *
   400       C         77.87300000  *  146.08700000  * -61.51600000  *
   401       O         77.11500000  *  145.89500000  * -62.46400000  *
   402       N         77.44600000  *  146.31800000  * -60.28000000  *
   403       H         78.13400000  *  146.42500000  * -59.54900000  *
   404       C         76.02800000  *  146.35200000  * -59.94500000  *
   405       H         75.53300000  *  145.47600000  * -60.35900000  *
   406       C         75.84100000  *  146.37400000  * -58.43100000  *
   407       H         76.20500000  *  147.30400000  * -58.01800000  *
   408       H         74.76300000  *  146.35700000  * -58.24200000  *
   409       C         76.47200000  *  145.22200000  * -57.65900000  *
   410       H         77.55000000  *  145.23900000  * -57.74900000  *
   411       C         76.08000000  *  145.34100000  * -56.19200000  *
   412       H         74.99900000  *  145.23000000  * -56.07700000  *
   413       H         76.57300000  *  144.55300000  * -55.62900000  *
   414       H         76.38500000  *  146.30900000  * -55.80100000  *
   415       C         75.99600000  *  143.89000000  * -58.23600000  *
   416       H         76.41500000  *  143.73000000  * -59.22900000  *
   417       H         76.32800000  *  143.07800000  * -57.59100000  *
   418       H         74.90500000  *  143.87400000  * -58.30500000  *
   419       C         75.32200000  *  147.55900000  * -60.54800000  *
   420       O         74.09500000  *  147.56800000  * -60.66200000  *
   421       N         76.08400000  *  148.63100000  * -60.82900000  *
   422       H         77.08200000  *  148.53500000  * -60.67700000  *
   423       C         75.60100000  *  149.83300000  * -61.53400000  *
   424       H         74.83700000  *  150.33500000  * -60.94100000  *
   425       H         76.43800000  *  150.53300000  * -61.75900000  *
   426       H         75.13800000  *  149.54900000  * -62.49200000  *
   427       H         62.79000000  *  145.77200000  * -59.27600000  *
   428       C         63.71000000  *  145.72000000  * -58.67500000  *
   429       O         63.77900000  *  145.02200000  * -57.66400000  *
   430       N         64.72400000  *  146.45200000  * -59.11400000  *
   431       H         64.63800000  *  147.05100000  * -59.92700000  *
   432       C         65.97100000  *  146.53500000  * -58.38100000  *
   433       H         65.88400000  *  146.09200000  * -57.38600000  *
   434       C         67.11600000  *  145.87700000  * -59.11400000  *
   435       H         67.33600000  *  146.42600000  * -60.03000000  *
   436       C         68.35100000  *  145.87800000  * -58.21400000  *
   437       H         68.14700000  *  145.31400000  * -57.31800000  *
   438       H         69.21000000  *  145.44500000  * -58.72400000  *
   439       H         68.64100000  *  146.89000000  * -57.94500000  *
   440       C         66.72800000  *  144.44400000  * -59.47800000  *
   441       H         66.54900000  *  143.87300000  * -58.56400000  *
   442       H         65.81500000  *  144.42400000  * -60.06800000  *
   443       C         67.77400000  *  143.72700000  * -60.29600000  *
   444       H         68.68300000  *  143.57700000  * -59.72200000  *
   445       H         67.37700000  *  142.75300000  * -60.59800000  *
   446       H         68.02300000  *  144.31300000  * -61.18000000  *
   447       C         66.29500000  *  148.01000000  * -58.22000000  *
   448       O         66.21200000  *  148.78000000  * -59.18400000  *
   449       N         66.56200000  *  148.43400000  * -56.98200000  *
   450       H         66.62800000  *  147.74800000  * -56.23500000  *
   451       C         66.90200000  *  149.82800000  * -56.67000000  *
   452       H         66.08300000  *  150.47200000  * -56.98300000  *
   453       C         67.10800000  *  150.00800000  * -55.15800000  *
   454       H         67.89100000  *  149.32900000  * -54.81700000  *
   455       C         67.50000000  *  151.43800000  * -54.76800000  *
   456       H         66.67500000  *  152.11900000  * -54.96400000  *
   457       H         67.73700000  *  151.47300000  * -53.70500000  *
   458       H         68.37300000  *  151.76600000  * -55.32600000  *
   459       C         65.81300000  *  149.68800000  * -54.41000000  *
   460       H         65.52800000  *  148.64900000  * -54.54500000  *
   461       H         65.97600000  *  149.85600000  * -53.35400000  *
   462       H         65.00800000  *  150.32700000  * -54.76500000  *
   463       C         68.15800000  *  150.21900000  * -57.44500000  *
   464       O         69.19100000  *  149.55600000  * -57.32100000  *
   465       N         68.08000000  *  151.28300000  * -58.25100000  *
   466       H         67.22500000  *  151.80400000  * -58.24500000  *
   467       C         69.18900000  *  151.69800000  * -59.08000000  *
   468       H         69.52500000  *  150.81900000  * -59.63900000  *
   469       C         68.73700000  *  152.76800000  * -60.08300000  *
   470       H         67.83400000  *  152.41100000  * -60.57900000  *
   471       H         68.47700000  *  153.68100000  * -59.53700000  *
   472       C         69.79100000  *  153.06900000  * -61.13100000  *
   473       H         70.72100000  *  153.35000000  * -60.64200000  *
   474       H         69.97400000  *  152.16800000  * -61.71600000  *
   475       C         69.35100000  *  154.17900000  * -62.08100000  *
   476       H         68.50200000  *  153.81400000  * -62.66100000  *
   477       H         69.02300000  *  155.05600000  * -61.52200000  *
   478       C         70.49800000  *  154.55900000  * -63.02400000  *
   479       H         71.33900000  *  154.89000000  * -62.40800000  *
   480       H         70.81900000  *  153.66100000  * -63.56600000  *
   481       N         70.11800000  *  155.62600000  * -63.99700000  *
   482       H         69.74700000  *  156.41600000  * -63.48300000  *
   483       H         70.92600000  *  155.93300000  * -64.52500000  *
   484       H         69.41500000  *  155.27800000  * -64.63600000  *
   485       C         70.36000000  *  152.21400000  * -58.25300000  *
   486       O         70.19400000  *  153.07400000  * -57.38700000  *
   487       N         71.53700000  *  151.64500000  * -58.50700000  *
   488       H         71.59600000  *  150.90400000  * -59.18600000  *
   489       C         72.75000000  *  152.07400000  * -57.83600000  *
   490       H         72.53800000  *  152.52600000  * -56.87100000  *
   491       C         73.72700000  *  150.91100000  * -57.67000000  *
   492       H         73.31500000  *  150.22100000  * -56.93700000  *
   493       H         73.77900000  *  150.36900000  * -58.62000000  *
   494       C         75.16700000  *  151.27300000  * -57.28800000  *
   495       H         75.65500000  *  151.80300000  * -58.10000000  *
   496       C         75.18300000  *  152.16500000  * -56.05900000  *
   497       H         74.60800000  *  151.72100000  * -55.25200000  *
   498       H         76.21000000  *  152.29600000  * -55.73500000  *
   499       H         74.78900000  *  153.14000000  * -56.31200000  *
   500       C         75.93300000  *  149.99400000  * -57.01300000  *
   501       H         75.98300000  *  149.42100000  * -57.93300000  *
   502       H         76.94600000  *  150.24200000  * -56.71200000  *
   503       H         75.43500000  *  149.41000000  * -56.23200000  *
   504       C         73.31900000  *  153.11300000  * -58.79500000  *
   505       O         73.76900000  *  152.77900000  * -59.89700000  *
   506       N         73.26700000  *  154.36900000  * -58.37800000  *
   507       H         72.92600000  *  154.57000000  * -57.44900000  *
   508       C         73.73400000  *  155.46600000  * -59.19700000  *
   509       H         73.47500000  *  155.26500000  * -60.23600000  *
   510       C         73.02500000  *  156.74200000  * -58.76000000  *
   511       H         73.45000000  *  157.06300000  * -57.80900000  *
   512       H         73.23600000  *  157.53300000  * -59.48700000  *
   513       C         71.51300000  *  156.60300000  * -58.58700000  *
   514       H         71.27400000  *  155.80900000  * -57.88500000  *
   515       C         70.97400000  *  157.88000000  * -58.01900000  *
   516       H         71.37000000  *  158.74600000  * -58.56000000  *
   517       H         69.88800000  *  157.89100000  * -58.09300000  *
   518       H         71.22100000  *  157.96000000  * -56.96600000  *
   519       C         70.85100000  *  156.29000000  * -59.92300000  *
   520       H         71.28300000  *  155.39700000  * -60.34200000  *
   521       H         69.78900000  *  156.14400000  * -59.75100000  *
   522       H         71.00300000  *  157.12700000  * -60.60700000  *
   523       C         75.24500000  *  155.67800000  * -59.15800000  *
   524       O         75.83900000  *  156.04700000  * -60.17600000  *
   525       N         75.86200000  *  155.44600000  * -57.99600000  *
   526       H         75.29500000  *  155.17900000  * -57.20400000  *
   527       C         77.30800000  *  155.64700000  * -57.82900000  *
   528       H         77.80800000  *  155.40400000  * -58.76600000  *
   529       C         77.60000000  *  157.11700000  * -57.51900000  *
   530       H         76.91700000  *  157.54400000  * -56.80300000  *
   531       H         78.58200000  *  157.17000000  * -57.04800000  *
   532       C         77.65600000  *  157.97500000  * -58.75600000  *
   533       O         78.67800000  *  157.91700000  * -59.48300000  *
   534       O         76.67400000  *  158.70400000  * -59.00000000  *
   535       C         77.97900000  *  154.81700000  * -56.73400000  *
   536       O         77.37100000  *  154.52100000  * -55.70400000  *
   537       N         79.24700000  *  154.47700000  * -56.96600000  *
   538       H         79.69800000  *  154.82400000  * -57.79800000  *
   539       C         80.06100000  *  153.73800000  * -56.00300000  *
   540       H         79.55400000  *  153.69900000  * -55.05200000  *
   541       C         80.36600000  *  152.29800000  * -56.50400000  *
   542       H         79.42700000  *  151.75200000  * -56.56200000  *
   543       C         80.98100000  *  152.34300000  * -57.88400000  *
   544       H         82.06600000  *  152.43300000  * -57.82100000  *
   545       H         80.74600000  *  151.41400000  * -58.37900000  *
   546       H         80.59600000  *  153.14500000  * -58.51000000  *
   547       C         81.29900000  *  151.58800000  * -55.53900000  *
   548       H         80.81100000  *  151.54900000  * -54.57200000  *
   549       H         81.47300000  *  150.57200000  * -55.87800000  *
   550       H         82.25900000  *  152.09200000  * -55.44900000  *
   551       C         81.36500000  *  154.53600000  * -55.81000000  *
   552       O         82.27000000  *  154.48900000  * -56.64700000  *
   553       N         81.45200000  *  155.28200000  * -54.71000000  *
   554       H         80.67600000  *  155.30400000  * -54.06400000  *
   555       C         82.62100000  *  156.11100000  * -54.44300000  *
   556       H         83.20500000  *  156.21800000  * -55.35800000  *
   557       H         82.32200000  *  157.12800000  * -54.14500000  *
   558       H         83.29700000  *  155.73900000  * -53.65600000  *
   559       H         84.58000000  *  155.17100000  * -47.07300000  *
   560       C         84.22500000  *  154.98400000  * -48.09100000  *
   561       O         84.63900000  *  155.65900000  * -49.04200000  *
   562       N         83.35800000  *  153.99100000  * -48.22200000  *
   563       H         83.13600000  *  153.42800000  * -47.41700000  *
   564       C         82.77600000  *  153.65100000  * -49.50600000  *
   565       H         83.37000000  *  154.04700000  * -50.31700000  *
   566       C         82.71900000  *  152.14000000  * -49.66000000  *
   567       H         83.74000000  *  151.87500000  * -49.95700000  *
   568       H         82.64400000  *  151.54600000  * -48.78400000  *
   569       C         81.82600000  *  151.61900000  * -50.77900000  *
   570       H         80.79100000  *  151.88400000  * -50.58700000  *
   571       C         82.25800000  *  152.23100000  * -52.09200000  *
   572       H         83.31100000  *  152.49100000  * -52.08900000  *
   573       H         82.09300000  *  151.51300000  * -52.88400000  *
   574       H         81.65400000  *  153.10900000  * -52.31200000  *
   575       C         81.89900000  *  150.09400000  * -50.82200000  *
   576       H         81.91300000  *  149.66400000  * -49.82700000  *
   577       H         81.05200000  *  149.70600000  * -51.39100000  *
   578       H         82.82500000  *  149.80300000  * -51.32100000  *
   579       C         81.36700000  *  154.23200000  * -49.54800000  *
   580       O         80.51800000  *  153.85700000  * -48.74500000  *
   581       N         81.13100000  *  155.16100000  * -50.46700000  *
   582       H         81.84500000  *  155.34800000  * -51.16200000  *
   583       C         79.82200000  *  155.78100000  * -50.60800000  *
   584       H         79.27400000  *  155.67000000  * -49.68700000  *
   585       C         79.96700000  *  157.27800000  * -50.86800000  *
   586       H         80.42300000  *  157.50400000  * -51.79700000  *
   587       H         78.95400000  *  157.66400000  * -50.98900000  *
   588       C         80.57600000  *  158.04300000  * -49.72300000  *
   589       C         79.79300000  *  158.48000000  * -48.65600000  *
   590       H         78.73500000  *  158.25400000  * -48.66900000  *
   591       C         80.35600000  *  159.18600000  * -47.59400000  *
   592       H         79.75300000  *  159.56200000  * -46.79700000  *
   593       C         81.71600000  *  159.45200000  * -47.58700000  *
   594       O         82.27600000  *  160.12500000  * -46.52100000  *
   595       H         83.20600000  *  160.30800000  * -46.74500000  *
   596       C         82.51400000  *  159.02600000  * -48.63700000  *
   597       H         83.58200000  *  159.23300000  * -48.65000000  *
   598       C         81.94100000  *  158.32800000  * -49.69800000  *
   599       H         82.57400000  *  157.98100000  * -50.50200000  *
   600       C         79.04800000  *  155.15800000  * -51.76500000  *
   601       O         79.54400000  *  155.08000000  * -52.88800000  *
   602       N         77.86200000  *  154.62600000  * -51.49500000  *
   603       H         77.53500000  *  154.65100000  * -50.53500000  *
   604       C         76.98200000  *  154.05500000  * -52.51200000  *
   605       H         77.50600000  *  154.00100000  * -53.46000000  *
   606       C         76.55200000  *  152.62300000  * -52.14900000  *
   607       H         75.86900000  *  152.66700000  * -51.31100000  *
   608       H         76.00500000  *  152.21500000  * -53.00000000  *
   609       C         77.69100000  *  151.65600000  * -51.78700000  *
   610       H         78.21000000  *  152.01100000  * -50.89600000  *
   611       C         77.12500000  *  150.26800000  * -51.49300000  *
   612       H         76.62500000  *  149.86900000  * -52.37800000  *
   613       H         77.93300000  *  149.59300000  * -51.20600000  *
   614       H         76.41400000  *  150.32600000  * -50.67100000  *
   615       C         78.69200000  *  151.52700000  * -52.92900000  *
   616       H         79.20700000  *  152.47300000  * -53.07100000  *
   617       H         79.43100000  *  150.76900000  * -52.68100000  *
   618       H         78.17500000  *  151.25400000  * -53.85000000  *
   619       C         75.78600000  *  154.98600000  * -52.67200000  *
   620       O         75.10400000  *  155.26500000  * -51.68300000  *
   621       N         75.54700000  *  155.50800000  * -53.87800000  *
   622       H         76.14500000  *  155.25500000  * -54.66000000  *
   623       C         74.40900000  *  156.37500000  * -54.09400000  *
   624       H         73.97600000  *  156.70200000  * -53.15000000  *
   625       C         74.83400000  *  157.63700000  * -54.81800000  *
   626       H         75.25500000  *  157.34500000  * -55.76600000  *
   627       C         73.61400000  *  158.52200000  * -55.10900000  *
   628       H         73.11700000  *  158.76900000  * -54.17500000  *
   629       H         73.94100000  *  159.43100000  * -55.61500000  *
   630       H         72.91600000  *  158.00900000  * -55.76200000  *
   631       C         75.84000000  *  158.38200000  * -53.94900000  *
   632       H         75.28100000  *  158.78400000  * -53.13000000  *
   633       H         76.65600000  *  157.75800000  * -53.60500000  *
   634       H         76.26100000  *  159.20400000  * -54.52500000  *
   635       C         73.31400000  *  155.64400000  * -54.85300000  *
   636       O         73.49500000  *  155.22100000  * -55.99400000  *
   637       N         72.21200000  *  155.38200000  * -54.15600000  *
   638       H         72.14700000  *  155.73900000  * -53.20600000  *
   639       C         71.03600000  *  154.69800000  * -54.68300000  *
   640       H         71.28300000  *  154.22700000  * -55.63000000  *
   641       C         70.59100000  *  153.61000000  * -53.70000000  *
   642       H         70.46500000  *  154.05500000  * -52.71400000  *
   643       H         69.61300000  *  153.24600000  * -54.01000000  *
   644       C         71.52600000  *  152.42100000  * -53.58600000  *
   645       C         71.39000000  *  151.33100000  * -54.46800000  *
   646       H         70.64900000  *  151.35600000  * -55.25300000  *
   647       C         72.21000000  *  150.19700000  * -54.32600000  *
   648       H         72.09500000  *  149.35800000  * -54.99900000  *
   649       C         73.17400000  *  150.15100000  * -53.30500000  *
   650       H         73.80500000  *  149.27800000  * -53.19500000  *
   651       C         73.31700000  *  151.24000000  * -52.42800000  *
   652       H         74.05100000  *  151.19800000  * -51.63700000  *
   653       C         72.50000000  *  152.37700000  * -52.57000000  *
   654       H         72.60900000  *  153.21000000  * -51.88800000  *
   655       C         69.89500000  *  155.69100000  * -54.92100000  *
   656       O         69.78700000  *  156.70400000  * -54.22700000  *
   657       N         69.01900000  *  155.40600000  * -55.88700000  *
   658       H         69.16100000  *  154.56300000  * -56.43400000  *
   659       C         67.73300000  *  156.11200000  * -55.98200000  *
   660       H         67.95200000  *  157.15900000  * -56.19700000  *
   661       C         66.88300000  *  155.57700000  * -57.15100000  *
   662       H         66.01600000  *  156.22900000  * -57.25600000  *
   663       H         67.46400000  *  155.62900000  * -58.07300000  *
   664       C         66.40600000  *  154.13500000  * -56.93800000  *
   665       H         67.28200000  *  153.48600000  * -56.90800000  *
   666       H         65.90200000  *  154.06600000  * -55.97800000  *
   667       C         65.42200000  *  153.63300000  * -58.00100000  *
   668       O         64.53100000  *  154.38400000  * -58.46100000  *
   669       O         65.49300000  *  152.43400000  * -58.34400000  *
   670       C         66.96400000  *  156.06500000  * -54.64100000  *
   671       O         67.01900000  *  155.07800000  * -53.89900000  *
   672       N         66.24800000  *  157.14000000  * -54.31500000  *
   673       H         66.21100000  *  157.92100000  * -54.95500000  *
   674       C         65.37300000  *  157.18500000  * -53.14400000  *
   675       H         65.83600000  *  156.62300000  * -52.33000000  *
   676       C         65.23700000  *  158.64000000  * -52.68600000  *
   677       H         66.23400000  *  159.03600000  * -52.49000000  *
   678       H         64.79300000  *  159.23100000  * -53.48800000  *
   679       C         64.40900000  *  158.80400000  * -51.43000000  *
   680       C         63.06500000  *  159.21700000  * -51.50300000  *
   681       H         62.61400000  *  159.43500000  * -52.46200000  *
   682       C         62.30100000  *  159.33700000  * -50.32900000  *
   683       H         61.26800000  *  159.65100000  * -50.38800000  *
   684       C         62.87600000  *  159.04300000  * -49.08200000  *
   685       H         62.28600000  *  159.12600000  * -48.17800000  *
   686       C         64.22200000  *  158.64400000  * -49.00900000  *
   687       H         64.67300000  *  158.42900000  * -48.05400000  *
   688       C         64.98600000  *  158.51900000  * -50.18000000  *
   689       H         66.01700000  *  158.19800000  * -50.12100000  *
   690       C         64.00100000  *  156.55700000  * -53.44000000  *
   691       O         63.40300000  *  156.83100000  * -54.48500000  *
   692       N         63.47900000  *  155.76400000  * -52.50100000  *
   693       H         64.03400000  *  155.57500000  * -51.67400000  *
   694       C         62.09700000  *  155.26800000  * -52.49600000  *
   695       H         61.51900000  *  155.77100000  * -53.27400000  *
   696       C         62.05100000  *  153.75400000  * -52.75000000  *
   697       H         62.77200000  *  153.26700000  * -52.09500000  *
   698       H         61.05800000  *  153.40400000  * -52.46700000  *
   699       C         62.31000000  *  153.36600000  * -54.21800000  *
   700       H         62.07400000  *  154.20500000  * -54.87200000  *
   701       C         63.76500000  *  152.95600000  * -54.42600000  *
   702       H         64.00700000  *  152.11600000  * -53.77800000  *
   703       H         63.92700000  *  152.67900000  * -55.46600000  *
   704       H         64.42200000  *  153.78800000  * -54.17800000  *
   705       C         61.42900000  *  152.18600000  * -54.63300000  *
   706       H         60.38000000  *  152.43300000  * -54.47400000  *
   707       H         61.57300000  *  151.97300000  * -55.69000000  *
   708       H         61.68000000  *  151.30200000  * -54.04800000  *
   709       C         61.43900000  *  155.60000000  * -51.15700000  *
   710       O         62.06300000  *  155.51300000  * -50.10500000  *
   711       N         60.18100000  *  156.02400000  * -51.18400000  *
   712       H         59.72300000  *  156.10600000  * -52.08300000  *
   713       C         59.56400000  *  156.72700000  * -50.05700000  *
   714       H         60.28500000  *  157.45700000  * -49.68600000  *
   715       C         58.35500000  *  157.51100000  * -50.57500000  *
   716       H         57.56300000  *  156.80900000  * -50.83300000  *
   717       H         58.00800000  *  158.15500000  * -49.76900000  *
   718       C         58.63300000  *  158.37200000  * -51.78800000  *
   719       N         58.77400000  *  157.90500000  * -53.10000000  *
   720       C         59.02800000  *  158.99000000  * -53.85300000  *
   721       H         59.19100000  *  158.97900000  * -54.92500000  *
   722       N         59.05100000  *  160.09400000  * -53.08800000  *
   723       H         59.21700000  *  161.03700000  * -53.42800000  *
   724       C         58.80300000  *  159.72600000  * -51.78300000  *
   725       H         58.75500000  *  160.37700000  * -50.91900000  *
   726       C         59.20300000  *  155.84800000  * -48.84300000  *
   727       O         58.96400000  *  156.39300000  * -47.76500000  *
   728       N         59.17100000  *  154.51500000  * -48.98200000  *
   729       H         59.37900000  *  154.12200000  * -49.89100000  *
   730       C         58.85600000  *  153.57500000  * -47.89500000  *
   731       H         59.28500000  *  153.96900000  * -46.97500000  *
   732       C         57.32500000  *  153.51700000  * -47.71100000  *
   733       H         56.96800000  *  154.52700000  * -47.50300000  *
   734       H         56.85300000  *  153.17900000  * -48.63400000  *
   735       C         56.88500000  *  152.60300000  * -46.55600000  *
   736       H         56.75600000  *  151.59200000  * -46.93400000  *
   737       H         57.65800000  *  152.59500000  * -45.78900000  *
   738       C         55.59400000  *  153.06000000  * -45.88800000  *
   739       O         55.60000000  *  153.66800000  * -44.83000000  *
   740       N         54.44200000  *  152.79000000  * -46.46200000  *
   741       H         53.61400000  *  153.11200000  * -45.98500000  *
   742       H         54.40900000  *  152.31700000  * -47.34700000  *
   743       C         59.48600000  *  152.18300000  * -48.11800000  *
   744       O         59.68200000  *  151.75900000  * -49.25600000  *
   745       N         59.79500000  *  151.46600000  * -47.03100000  *
   746       H         59.59200000  *  151.85900000  * -46.12700000  *
   747       C         60.21600000  *  150.05700000  * -47.05700000  *
   748       H         60.52600000  *  149.81700000  * -48.07000000  *
   749       C         61.45200000  *  149.82500000  * -46.16400000  *
   750       H         61.84800000  *  148.83800000  * -46.40800000  *
   751       H         62.21500000  *  150.55600000  * -46.43800000  *
   752       C         61.22100000  *  149.87800000  * -44.64600000  *
   753       O         60.26300000  *  149.24500000  * -44.15600000  *
   754       O         62.03800000  *  150.51300000  * -43.94000000  *
   755       C         59.05100000  *  149.10800000  * -46.71800000  *
   756       O         58.01800000  *  149.52700000  * -46.17400000  *
   757       N         59.19100000  *  147.81900000  * -47.04800000  *
   758       H         60.03800000  *  147.50900000  * -47.52500000  *
   759       C         58.10100000  *  146.88000000  * -46.84100000  *
   760       H         57.21800000  *  147.32500000  * -47.29300000  *
   761       C         58.41200000  *  145.57700000  * -47.59200000  *
   762       H         58.61300000  *  145.80400000  * -48.64400000  *
   763       H         59.28800000  *  145.12100000  * -47.15800000  *
   764       C         57.28700000  *  144.52700000  * -47.51900000  *
   765       H         57.05600000  *  144.28000000  * -46.48700000  *
   766       C         56.00700000  *  145.04400000  * -48.19600000  *
   767       H         56.23500000  *  145.37800000  * -49.20200000  *
   768       H         55.26800000  *  144.24500000  * -48.23100000  *
   769       H         55.59500000  *  145.87000000  * -47.62900000  *
   770       C         57.76800000  *  143.24900000  * -48.17500000  *
   771       H         58.61500000  *  142.85400000  * -47.62000000  *
   772       H         56.97300000  *  142.50400000  * -48.17100000  *
   773       H         58.06400000  *  143.44500000  * -49.20700000  *
   774       C         57.76400000  *  146.61300000  * -45.36900000  *
   775       O         56.60900000  *  146.37600000  * -45.03000000  *
   776       N         58.75700000  *  146.67700000  * -44.48800000  *
   777       H         59.64000000  *  147.08600000  * -44.79000000  *
   778       C         58.49100000  *  146.46700000  * -43.07300000  *
   779       H         57.97900000  *  145.55100000  * -42.87200000  *
   780       C         59.78200000  *  146.47800000  * -42.25400000  *
   781       H         60.44800000  *  145.70000000  * -42.62000000  *
   782       H         60.28600000  *  147.44000000  * -42.35600000  *
   783       C         59.49200000  *  146.22900000  * -40.76500000  *
   784       H         58.94200000  *  147.08300000  * -40.37400000  *
   785       H         58.87100000  *  145.33200000  * -40.67600000  *
   786       C         60.74500000  *  146.03800000  * -39.93500000  *
   787       H         61.36100000  *  145.25900000  * -40.37900000  *
   788       H         61.30800000  *  146.97100000  * -39.90700000  *
   789       C         60.37600000  *  145.60700000  * -38.51700000  *
   790       H         59.98500000  *  144.58900000  * -38.53700000  *
   791       H         61.27900000  *  145.61300000  * -37.90300000  *
   792       N         59.34600000  *  146.53100000  * -37.94700000  *
   793       H         58.44600000  *  146.48100000  * -38.44300000  *
   794       H         59.09000000  *  146.27800000  * -37.00400000  *
   795       H         59.61300000  *  147.50600000  * -37.97800000  *
   796       C         57.55800000  *  147.53800000  * -42.51200000  *
   797       O         56.61300000  *  147.23400000  * -41.78300000  *
   798       N         57.83700000  *  148.81000000  * -42.81000000  *
   799       H         58.66600000  *  148.99400000  * -43.38100000  *
   800       C         57.02200000  *  149.93900000  * -42.34800000  *
   801       H         56.92400000  *  149.87400000  * -41.26200000  *
   802       C         57.73300000  *  151.25700000  * -42.69200000  *
   803       H         58.76600000  *  151.20000000  * -42.34400000  *
   804       H         57.74100000  *  151.39500000  * -43.77300000  *
   805       C         57.06000000  *  152.46200000  * -42.01600000  *
   806       H         56.04500000  *  152.57100000  * -42.39700000  *
   807       H         57.00900000  *  152.28400000  * -40.94100000  *
   808       C         57.84300000  *  153.75900000  * -42.26800000  *
   809       H         58.84100000  *  153.66300000  * -41.83700000  *
   810       H         57.93300000  *  153.93000000  * -43.34200000  *
   811       C         57.10900000  *  154.93700000  * -41.61500000  *
   812       H         56.11700000  *  155.02400000  * -42.06700000  *
   813       H         56.97300000  *  154.71700000  * -40.55200000  *
   814       N         57.85400000  *  156.21300000  * -41.77300000  *
   815       H         57.97200000  *  156.45300000  * -42.74600000  *
   816       H         57.36100000  *  156.97400000  * -41.33000000  *
   817       H         58.76800000  *  156.15800000  * -41.34800000  *
   818       C         55.61200000  *  149.84500000  * -42.92800000  *
   819       O         54.63800000  *  150.09100000  * -42.22200000  *
   820       N         55.49500000  *  149.42600000  * -44.18900000  *
   821       H         56.35000000  *  149.26300000  * -44.71300000  *
   822       C         54.20500000  *  149.26000000  * -44.85200000  *
   823       H         53.62600000  *  150.17500000  * -44.72500000  *
   824       C         54.41000000  *  148.98800000  * -46.34000000  *
   825       H         54.98900000  *  149.80200000  * -46.77700000  *
   826       H         55.00200000  *  148.07700000  * -46.45200000  *
   827       C         53.12600000  *  148.85300000  * -47.10800000  *
   828       C         52.23100000  *  149.92200000  * -47.18600000  *
   829       H         52.46300000  *  150.85600000  * -46.69900000  *
   830       C         51.01500000  *  149.79500000  * -47.88400000  *
   831       H         50.32500000  *  150.62800000  * -47.91800000  *
   832       C         50.69700000  *  148.60300000  * -48.50200000  *
   833       H         49.75200000  *  148.50200000  * -49.02000000  *
   834       C         51.58700000  *  147.52100000  * -48.43200000  *
   835       H         51.33500000  *  146.58300000  * -48.91200000  *
   836       C         52.79500000  *  147.65400000  * -47.73300000  *
   837       H         53.46700000  *  146.81000000  * -47.67200000  *
   838       C         53.37400000  *  148.12200000  * -44.22700000  *
   839       O         52.16900000  *  148.28300000  * -44.00900000  *
   840       N         54.01600000  *  146.98100000  * -43.96600000  *
   841       H         55.00900000  *  146.90600000  * -44.17900000  *
   842       C         53.33800000  *  145.83600000  * -43.34100000  *
   843       H         52.47600000  *  145.52800000  * -43.93400000  *
   844       C         54.29200000  *  144.65000000  * -43.17000000  *
   845       H         55.15800000  *  145.02700000  * -42.63600000  *
   846       H         53.80700000  *  143.89200000  * -42.54700000  *
   847       C         54.73100000  *  144.00400000  * -44.46100000  *
   848       H         53.84700000  *  143.61400000  * -44.95900000  *
   849       H         55.19200000  *  144.69400000  * -45.15000000  *
   850       S         55.79700000  *  142.58100000  * -44.15400000  *
   851       C         57.05400000  *  143.29200000  * -43.18800000  *
   852       H         56.67800000  *  143.65800000  * -42.23500000  *
   853       H         57.80700000  *  142.53400000  * -42.98200000  *
   854       H         57.44300000  *  144.07900000  * -43.80900000  *
   855       C         52.84400000  *  146.26000000  * -41.95900000  *
   856       O         51.68200000  *  146.03200000  * -41.61400000  *
   857       N         53.72600000  *  146.88400000  * -41.17900000  *
   858       H         54.70100000  *  146.95700000  * -41.45300000  *
   859       C         53.34300000  *  147.35100000  * -39.84600000  *
   860       H         53.03400000  *  146.49700000  * -39.23800000  *
   861       C         54.50500000  *  148.07700000  * -39.15700000  *
   862       H         54.94100000  *  148.81500000  * -39.83000000  *
   863       H         54.12400000  *  148.60600000  * -38.28400000  *
   864       C         55.58400000  *  147.11500000  * -38.68500000  *
   865       O         55.26200000  *  145.90900000  * -38.57600000  *
   866       O         56.73300000  *  147.55200000  * -38.41700000  *
   867       C         52.15000000  *  148.27900000  * -39.96300000  *
   868       O         51.20300000  *  148.18000000  * -39.18700000  *
   869       N         52.18300000  *  149.16200000  * -40.95500000  *
   870       H         53.01600000  *  149.23700000  * -41.51800000  *
   871       C         51.08600000  *  150.10000000  * -41.17300000  *
   872       H         50.93100000  *  150.67400000  * -40.25800000  *
   873       C         51.42800000  *  151.06800000  * -42.31500000  *
   874       H         51.45500000  *  150.53900000  * -43.26600000  *
   875       H         50.66000000  *  151.83800000  * -42.36800000  *
   876       H         52.39300000  *  151.53600000  * -42.12800000  *
   877       C         49.78900000  *  149.37000000  * -41.49900000  *
   878       O         48.71100000  *  149.83600000  * -41.15600000  *
   879       N         49.90500000  *  148.22900000  * -42.16400000  *
   880       H         50.83800000  *  147.88500000  * -42.38200000  *
   881       C         48.74000000  *  147.45400000  * -42.57500000  *
   882       H         47.85700000  *  148.08600000  * -42.62800000  *
   883       H         48.90600000  *  147.02300000  * -43.58600000  *
   884       H         48.52600000  *  146.61900000  * -41.88800000  *
   885       H         72.54500000  *  137.05800000  * -55.15200000  *
   886       C         72.38600000  *  137.90500000  * -54.47400000  *
   887       O         73.28300000  *  138.71900000  * -54.28600000  *
   888       N         71.20100000  *  138.01500000  * -53.89800000  *
   889       H         70.47300000  *  137.31400000  * -54.05700000  *
   890       C         70.96800000  *  139.10000000  * -52.94900000  *
   891       H         71.50000000  *  140.00600000  * -53.22900000  *
   892       C         69.47700000  *  139.40500000  * -52.82500000  *
   893       H         69.09300000  *  139.71900000  * -53.79200000  *
   894       H         68.93000000  *  138.50600000  * -52.53300000  *
   895       C         69.17800000  *  140.45400000  * -51.81200000  *
   896       N         69.23000000  *  140.42300000  * -50.45900000  *
   897       C         68.94700000  *  141.69100000  * -50.01400000  *
   898       H         68.96900000  *  142.01200000  * -48.98400000  *
   899       N         68.72400000  *  142.47200000  * -51.05500000  *
   900       H         68.47200000  *  143.44500000  * -51.00700000  *
   901       C         68.85400000  *  141.75000000  * -52.15500000  *
   902       H         68.77100000  *  142.12600000  * -53.16500000  *
   903       C         71.52100000  *  138.65700000  * -51.58300000  *
   904       O         72.28000000  *  139.38000000  * -50.94700000  *
   905       N         71.11400000  *  137.47100000  * -51.14500000  *
   906       H         70.37100000  *  137.01600000  * -51.66500000  *
   907       C         71.55500000  *  136.88000000  * -49.87700000  *
   908       H         71.18200000  *  135.84900000  * -49.87900000  *
   909       C         73.07600000  *  136.85300000  * -49.83700000  *
   910       H         73.53100000  *  137.83300000  * -49.86900000  *
   911       H         73.36600000  *  136.47900000  * -48.85100000  *
   912       C         73.64700000  *  135.85900000  * -50.81700000  *
   913       H         73.29800000  *  134.87100000  * -50.67200000  *
   914       H         73.21600000  *  136.10500000  * -51.78700000  *
   915       C         75.11700000  *  136.08400000  * -50.99900000  *
   916       H         75.61200000  *  135.95400000  * -50.03300000  *
   917       H         75.49500000  *  135.33200000  * -51.69500000  *
   918       N         75.35800000  *  137.42700000  * -51.50600000  *
   919       H         74.62100000  *  138.12700000  * -51.38200000  *
   920       C         76.54800000  *  137.85900000  * -51.89000000  *
   921       N         77.59300000  *  137.04400000  * -51.81500000  *
   922       H         77.44700000  *  136.21200000  * -51.26800000  *
   923       H         78.49900000  *  137.44300000  * -51.92100000  *
   924       N         76.69000000  *  139.09300000  * -52.35600000  *
   925       H         75.86000000  *  139.69200000  * -52.33800000  *
   926       H         77.56200000  *  139.47800000  * -52.67100000  *
   927       C         71.03700000  *  137.42400000  * -48.54200000  *
   928       O         71.18700000  *  136.76800000  * -47.50900000  *
   929       N         70.43700000  *  138.60400000  * -48.51600000  *
   930       H         70.32800000  *  139.16900000  * -49.34700000  *
   931       C         69.93700000  *  139.07600000  * -47.23100000  *
   932       H         69.76500000  *  138.24900000  * -46.54100000  *
   933       C         70.93500000  *  140.04200000  * -46.56200000  *
   934       H         71.90900000  *  139.56600000  * -46.50900000  *
   935       H         71.04400000  *  140.94300000  * -47.17900000  *
   936       C         70.51300000  *  140.42800000  * -45.14700000  *
   937       O         70.17200000  *  139.51500000  * -44.35500000  *
   938       O         70.51000000  *  141.64400000  * -44.82500000  *
   939       C         68.58700000  *  139.73400000  * -47.37800000  *
   940       O         68.35000000  *  140.81000000  * -46.83500000  *
   941       N         67.68700000  *  139.08300000  * -48.11000000  *
   942       H         67.94300000  *  138.20800000  * -48.54500000  *
   943       C         66.35900000  *  139.64900000  * -48.29900000  *
   944       H         66.47700000  *  140.66700000  * -48.65900000  *
   945       C         65.54600000  *  138.81300000  * -49.28800000  *
   946       H         65.58300000  *  137.78400000  * -48.94500000  *
   947       H         64.50600000  *  139.14000000  * -49.25500000  *
   948       C         66.02700000  *  138.85500000  * -50.73600000  *
   949       H         67.06400000  *  138.52800000  * -50.78200000  *
   950       C         65.17300000  *  137.91700000  * -51.58300000  *
   951       H         64.15900000  *  138.30500000  * -51.68800000  *
   952       H         65.63400000  *  137.80700000  * -52.55000000  *
   953       H         65.13400000  *  136.93500000  * -51.11000000  *
   954       C         65.92100000  *  140.27700000  * -51.26400000  *
   955       H         66.42000000  *  140.99600000  * -50.63300000  *
   956       H         66.44200000  *  140.27500000  * -52.20900000  *
   957       H         64.88200000  *  140.56100000  * -51.39700000  *
   958       C         65.59400000  *  139.73400000  * -46.98200000  *
   959       O         65.58600000  *  138.79200000  * -46.16600000  *
   960       N         64.95700000  *  140.85600000  * -46.74400000  *
   961       H         64.96700000  *  141.58900000  * -47.44100000  *
   962       C         64.16600000  *  141.06100000  * -45.54600000  *
   963       H         63.55300000  *  140.17100000  * -45.40900000  *
   964       C         65.04100000  *  141.22300000  * -44.28500000  *
   965       H         64.40400000  *  141.28500000  * -43.40200000  *
   966       H         65.63800000  *  140.31900000  * -44.16700000  *
   967       C         65.97700000  *  142.43900000  * -44.28600000  *
   968       H         66.38200000  *  142.59200000  * -45.28400000  *
   969       H         65.42400000  *  143.32700000  * -43.98300000  *
   970       C         67.13700000  *  142.17200000  * -43.32000000  *
   971       H         66.74300000  *  141.89200000  * -42.34000000  *
   972       H         67.71700000  *  141.33500000  * -43.71700000  *
   973       C         68.04300000  *  143.39600000  * -43.16500000  *
   974       H         68.14700000  *  143.88800000  * -44.13700000  *
   975       H         67.56000000  *  144.10300000  * -42.48100000  *
   976       N         69.37800000  *  142.98900000  * -42.65200000  *
   977       H         69.87100000  *  142.42000000  * -43.35500000  *
   978       H         69.94400000  *  143.79700000  * -42.42200000  *
   979       H         69.28400000  *  142.43600000  * -41.81000000  *
   980       C         63.26700000  *  142.23100000  * -45.83500000  *
   981       O         63.62900000  *  143.07600000  * -46.65300000  *
   982       N         62.11200000  *  142.30300000  * -45.18600000  *
   983       C         61.62600000  *  141.34600000  * -44.17100000  *
   984       H         62.10000000  *  141.53200000  * -43.20900000  *
   985       H         61.74500000  *  140.31100000  * -44.47600000  *
   986       C         60.16400000  *  141.66900000  * -44.09500000  *
   987       H         59.73700000  *  141.34900000  * -43.14300000  *
   988       H         59.63700000  *  141.20600000  * -44.93200000  *
   989       C         60.16000000  *  143.18900000  * -44.24800000  *
   990       H         60.51600000  *  143.64900000  * -43.32100000  *
   991       H         59.20200000  *  143.56500000  * -44.57400000  *
   992       C         61.14500000  *  143.38000000  * -45.40300000  *
   993       H         60.63400000  *  143.20500000  * -46.34500000  *
   994       C         61.77100000  *  144.77100000  * -45.44800000  *
   995       O         61.39200000  *  145.58400000  * -46.27300000  *
   996       N         62.72500000  *  145.09100000  * -44.55600000  *
   997       H         62.97100000  *  144.40500000  * -43.85900000  *
   998       C         63.44000000  *  146.39100000  * -44.53700000  *
   999       H         62.70500000  *  147.19300000  * -44.44000000  *
  1000       C         64.40100000  *  146.46300000  * -43.33800000  *
  1001       H         65.08600000  *  145.61600000  * -43.37900000  *
  1002       H         64.99500000  *  147.37400000  * -43.42700000  *
  1003       C         63.70700000  *  146.49800000  * -41.97000000  *
  1004       H         63.02200000  *  147.34600000  * -41.94500000  *
  1005       H         63.13600000  *  145.58300000  * -41.82600000  *
  1006       C         64.71300000  *  146.61900000  * -40.82300000  *
  1007       O         65.71500000  *  145.91900000  * -40.76300000  *
  1008       N         64.48900000  *  147.49200000  * -39.86600000  *
  1009       H         65.16200000  *  147.56000000  * -39.11600000  *
  1010       H         63.69100000  *  148.10800000  * -39.89800000  *
  1011       C         64.26400000  *  146.68100000  * -45.81000000  *
  1012       O         64.44100000  *  147.83600000  * -46.18800000  *
  1013       N         64.76000000  *  145.63400000  * -46.47400000  *
  1014       H         64.48200000  *  144.71400000  * -46.16600000  *
  1015       C         65.53700000  *  145.69500000  * -47.71200000  *
  1016       H         66.11000000  *  146.62500000  * -47.73900000  *
  1017       C         66.53800000  *  144.50900000  * -47.74800000  *
  1018       H         66.02500000  *  143.58600000  * -47.49200000  *
  1019       H         66.91500000  *  144.38900000  * -48.76100000  *
  1020       C         67.76300000  *  144.67200000  * -46.85800000  *
  1021       O         68.08200000  *  145.74100000  * -46.37100000  *
  1022       N         68.51300000  *  143.61900000  * -46.61500000  *
  1023       H         69.37600000  *  143.75100000  * -46.11500000  *
  1024       H         68.25500000  *  142.67600000  * -46.88800000  *
  1025       C         64.63400000  *  145.71500000  * -48.96500000  *
  1026       O         65.15800000  *  145.63400000  * -50.07400000  *
  1027       N         63.30000000  *  145.80300000  * -48.83400000  *
  1028       H         62.89500000  *  145.87300000  * -47.90900000  *
  1029       C         62.40600000  *  145.84500000  * -49.97900000  *
  1030       H         62.94700000  *  145.74800000  * -50.91900000  *
  1031       C         61.36900000  *  144.72100000  * -49.88900000  *
  1032       H         60.76900000  *  144.86100000  * -48.99200000  *
  1033       H         60.74400000  *  144.79800000  * -50.77200000  *
  1034       C         62.03600000  *  143.32400000  * -49.85900000  *
  1035       H         62.67100000  *  143.24000000  * -48.98800000  *
  1036       C         61.00200000  *  142.26000000  * -49.77100000  *
  1037       H         60.24600000  *  142.42800000  * -50.53400000  *
  1038       H         61.44700000  *  141.27100000  * -49.89000000  *
  1039       H         60.52000000  *  142.31900000  * -48.79800000  *
  1040       C         62.89500000  *  143.12600000  * -51.08400000  *
  1041       H         63.82900000  *  143.66800000  * -50.95600000  *
  1042       H         63.12900000  *  142.06900000  * -51.20900000  *
  1043       H         62.39300000  *  143.49200000  * -51.96600000  *
  1044       C         61.76300000  *  147.21800000  * -49.95200000  *
  1045       O         61.15000000  *  147.60200000  * -48.96600000  *
  1046       N         61.88000000  *  147.97600000  * -51.03400000  *
  1047       H         62.37200000  *  147.60500000  * -51.84100000  *
  1048       C         61.44000000  *  149.36900000  * -51.06200000  *
  1049       H         61.05400000  *  149.66800000  * -50.09000000  *
  1050       C         62.62000000  *  150.27600000  * -51.38400000  *
  1051       H         62.95100000  *  150.07800000  * -52.40400000  *
  1052       H         62.26200000  *  151.30000000  * -51.32100000  *
  1053       C         63.81200000  *  150.10600000  * -50.43500000  *
  1054       H         64.22900000  *  149.10600000  * -50.53700000  *
  1055       C         64.86000000  *  151.12200000  * -50.83900000  *
  1056       H         64.50300000  *  152.11800000  * -50.59100000  *
  1057       H         65.78400000  *  150.90400000  * -50.31200000  *
  1058       H         65.04500000  *  151.08600000  * -51.90500000  *
  1059       C         63.46300000  *  150.34500000  * -48.96900000  *
  1060       H         62.84700000  *  149.53000000  * -48.60400000  *
  1061       H         64.37300000  *  150.37000000  * -48.37100000  *
  1062       H         62.92500000  *  151.28400000  * -48.86100000  *
  1063       C         60.32100000  *  149.56100000  * -52.06500000  *
  1064       O         60.41600000  *  149.10000000  * -53.19100000  *
  1065       N         59.26800000  *  150.25600000  * -51.67700000  *
  1066       H         59.36500000  *  150.76300000  * -50.80000000  *
  1067       C         58.08300000  *  150.44700000  * -52.50800000  *
  1068       H         58.17300000  *  149.92400000  * -53.45700000  *
  1069       C         56.81900000  *  149.90600000  * -51.78600000  *
  1070       H         55.94300000  *  150.08700000  * -52.41500000  *
  1071       C         56.95000000  *  148.40400000  * -51.54300000  *
  1072       H         57.75300000  *  148.18300000  * -50.83300000  *
  1073       H         56.01300000  *  148.00400000  * -51.15200000  *
  1074       H         57.15800000  *  147.91500000  * -52.48900000  *
  1075       C         56.64700000  *  150.60600000  * -50.43300000  *
  1076       H         57.48200000  *  150.38000000  * -49.77500000  *
  1077       H         56.60500000  *  151.68300000  * -50.57600000  *
  1078       C         55.37000000  *  150.22200000  * -49.68600000  *
  1079       H         55.48900000  *  149.24800000  * -49.22200000  *
  1080       H         55.17000000  *  150.96500000  * -48.91000000  *
  1081       H         54.52900000  *  150.16800000  * -50.38500000  *
  1082       C         57.87200000  *  151.93000000  * -52.81700000  *
  1083       O         58.38200000  *  152.79400000  * -52.10000000  *
  1084       N         57.14900000  *  152.22000000  * -53.89700000  *
  1085       H         56.70500000  *  151.48200000  * -54.43300000  *
  1086       C         56.84100000  *  153.60200000  * -54.22700000  *
  1087       H         57.16800000  *  154.27800000  * -53.43100000  *
  1088       C         57.50400000  *  154.05300000  * -55.54100000  *
  1089       H         57.21800000  *  155.07000000  * -55.80500000  *
  1090       H         58.58200000  *  154.04400000  * -55.38800000  *
  1091       C         57.19300000  *  153.14600000  * -56.70100000  *
  1092       O         56.13500000  *  152.53500000  * -56.76400000  *
  1093       N         58.11500000  *  153.07200000  * -57.64100000  *
  1094       H         57.83300000  *  152.61700000  * -58.48600000  *
  1095       H         58.88600000  *  153.71500000  * -57.62100000  *
  1096       C         55.33100000  *  153.75800000  * -54.32100000  *
  1097       O         54.57600000  *  152.79900000  * -54.11400000  *
  1098       N         54.88500000  *  154.97100000  * -54.62100000  *
  1099       H         55.52100000  *  155.73600000  * -54.79200000  *
  1100       C         53.46400000  *  155.24700000  * -54.72300000  *
  1101       H         52.92700000  *  154.82600000  * -53.87200000  *
  1102       C         53.20900000  *  156.78000000  * -54.75500000  *
  1103       H         52.16900000  *  156.98000000  * -55.02600000  *
  1104       C         53.47800000  *  157.39700000  * -53.41000000  *
  1105       H         54.52100000  *  157.25500000  * -53.13000000  *
[...]
 1005  H   0.82995
 1006  C   1.06492   0.79571   0.73747   0.79755
 1007  O   1.87734   1.41824   1.57318   1.82744
 1008  N   1.52685   1.35605   1.40118   1.31433
 1009  H   0.65718
 1010  H   0.66251
 1011  C   1.08353   0.75506   0.78207   0.81703
 1012  O   1.88467   1.66404   1.31110   1.72778
 1013  N   1.55100   1.50754   1.20160   1.30297
 1014  H   0.66650
 1015  C   1.07295   0.94712   1.09167   0.82148
 1016  H   0.80438
 1017  C   1.07052   1.05065   1.09044   1.16262
 1018  H   0.83060
 1019  H   0.79611
 1020  C   1.05843   0.80552   0.76585   0.75923
 1021  O   1.87469   1.76540   1.41295   1.61505
 1022  N   1.53160   1.31547   1.19660   1.58065
 1023  H   0.66657
 1024  H   0.65393
 1025  C   1.08789   0.78513   0.72002   0.85271
 1026  O   1.87860   1.76689   1.61081   1.38038
 1027  N   1.54115   1.12559   1.66449   1.18372
 1028  H   0.65390
 1029  C   1.07001   0.96895   0.98046   0.97442
 1030  H   0.81118
 1031  C   1.06727   1.06426   0.99759   1.17263
 1032  H   0.83744
 1033  H   0.84801
 1034  C   1.04101   1.01193   0.94632   1.06214
 1035  H   0.85584
 1036  C   1.04922   1.12585   1.11846   1.17077
 1037  H   0.84487
 1038  H   0.84896
 1039  H   0.86565
 1040  C   1.05154   1.14130   1.17175   1.09913
 1041  H   0.84508
 1042  H   0.85767
 1043  H   0.84972
 1044  C   1.07607   0.75017   0.84347   0.75534
 1045  O   1.87188   1.53776   1.79690   1.44685
 1046  N   1.54560   1.55757   1.17221   1.24419
 1047  H   0.64499
 1048  C   1.06438   0.99070   0.82603   1.10006
 1049  H   0.81445
 1050  C   1.06446   1.02138   1.10728   1.12688
 1051  H   0.84607
 1052  H   0.83947
 1053  C   1.04791   0.96675   1.07370   0.96818
 1054  H   0.86592
 1055  C   1.05367   1.12269   1.13182   1.16588
 1056  H   0.84557
 1057  H   0.84886
 1058  H   0.85979
 1059  C   1.05447   1.17606   1.17768   1.04711
 1060  H   0.83986
 1061  H   0.85155
 1062  H   0.84745
 1063  C   1.07526   0.79799   0.74372   0.81713
 1064  O   1.86928   1.83065   1.62573   1.34183
 1065  N   1.54204   1.19036   1.46988   1.29617
 1066  H   0.64326
 1067  C   1.07591   0.88908   1.00622   1.04185
 1068  H   0.80979
 1069  C   1.06437   1.01625   0.99304   1.01955
 1070  H   0.85007
 1071  C   1.05462   1.18100   1.03405   1.17671
 1072  H   0.84351
 1073  H   0.84524
 1074  H   0.85307
 1075  C   1.05396   1.06878   1.11973   1.03183
 1076  H   0.84684
 1077  H   0.86133
 1078  C   1.05263   1.08987   1.15797   1.13214
 1079  H   0.84801
 1080  H   0.87735
 1081  H   0.84664
 1082  C   1.08631   0.74180   0.88766   0.74190
 1083  O   1.88669   1.56921   1.57704   1.55738
 1084  N   1.54296   1.50715   1.14379   1.33775
 1085  H   0.64348
 1086  C   1.06230   0.97183   0.88434   1.03735
 1087  H   0.80540
 1088  C   1.07254   1.18105   1.12792   1.02342
 1089  H   0.80967
 1090  H   0.80368
 1091  C   1.06086   0.76177   0.77063   0.82359
 1092  O   1.88009   1.35596   1.56935   1.83588
 1093  N   1.53410   1.29759   1.49478   1.27187
 1094  H   0.67201
 1095  H   0.66449
 1096  C   1.08315   0.88522   0.75948   0.71357
 1097  O   1.88781   1.65401   1.46826   1.58842
 1098  N   1.54017   1.14528   1.19760   1.67200
 1099  H   0.66323
 1100  C   1.08557   0.83713   1.05842   1.08283
 1101  H   0.80377
 1102  C   1.08428   0.99182   0.86661   0.88967
 1103  H   0.84656
 1104  C   1.05380   1.18342   1.18051   1.05457
 1105  H   0.84174
 1106  H   0.82409
 1107  H   0.82933
 1108  O   1.84878   1.59244   1.82302   1.34547
 1109  H   0.64221
 1110  C   1.07326   0.78901   0.75543   0.82407
 1111  O   1.87785   1.27995   1.68896   1.84880
 1112  N   1.53329   1.19336   1.53452   1.21092
 1113  H   0.66713
 1114  C   1.05710   1.15385   1.13345   0.89303
 1115  H   0.83548
 1116  H   0.83764
 1117  H   0.83537
 1118  H   0.83970
 1119  C   1.10505   0.75482   0.73545   0.91348
 1120  O   1.88312   1.71062   1.59691   1.48269
 1121  N   1.54487   1.42791   1.34568   1.20815
 1122  H   0.65367
 1123  C   1.08073   0.93113   1.08429   0.93140
 1124  H   0.80920
 1125  C   1.07315   1.07912   0.95393   0.98256
 1126  H   0.84407
 1127  C   1.05811   1.18714   1.08414   1.12935
 1128  H   0.84355
 1129  H   0.84851
 1130  H   0.85204
 1131  C   1.05414   1.07578   1.13457   1.01856
 1132  H   0.85369
 1133  H   0.85447
 1134  C   1.04919   1.14385   1.15099   1.09060
 1135  H   0.85001
 1136  H   0.85974
 1137  H   0.84950
 1138  C   1.07219   0.84167   0.73666   0.77773
 1139  O   1.87772   1.89045   1.52109   1.39112
 1140  N   1.54476   1.10285   1.52617   1.33530
 1141  H   0.63240
 1142  C   1.06991   0.84588   1.05454   1.03751
 1143  H   0.81841
 1144  C   1.06009   1.09233   1.04539   1.09641
 1145  H   0.83551
 1146  H   0.84688
 1147  C   1.05103   1.08532   1.04436   1.07713
 1148  H   0.85103
 1149  H   0.84433
 1150  C   1.05932   1.08197   1.05389   1.09874
 1151  H   0.84120
 1152  H   0.83196
 1153  C   1.07848   1.02183   0.99764   1.07350
 1154  H   0.81328
 1155  H   0.83404
 1156  N   1.46163   1.23192   1.23354   1.26063
 1157  H   0.68584
 1158  H   0.70068
 1159  H   0.68818
 1160  C   1.07842   0.77975   0.75031   0.82538
 1161  O   1.88103   1.77272   1.69335   1.29099
 1162  N   1.54484   1.32881   1.42527   1.23093
 1163  H   0.64042
 1164  C   1.07016   0.91872   0.95778   1.02894
 1165  H   0.83218
 1166  C   1.06276   1.10009   1.01956   1.13294
 1167  H   0.83526
 1168  H   0.84516
 1169  C   1.05372   1.07062   0.96103   0.96330
 1170  H   0.85959
 1171  C   1.06224   1.16612   1.13945   1.09235
 1172  H   0.85202
 1173  H   0.84920
 1174  H   0.85265
 1175  C   1.05740   1.18269   1.13705   1.08888
 1176  H   0.85348
 1177  H   0.84820
 1178  H   0.85439
 1179  C   1.08432   0.79175   0.79953   0.75957
 1180  O   1.88075   1.63429   1.59925   1.53906
 1181  N   1.54323   1.36401   1.43978   1.15984
 1182  H   0.64518
 1183  C   1.06716   0.91108   0.92884   1.05081
 1184  H   0.82650
 1185  C   1.05948   1.16563   1.08531   1.15288
 1186  H   0.82138
 1187  H   0.83381
 1188  H   0.82588
 1189  C   1.08864   0.78557   0.78626   0.74597
 1190  O   1.87146   1.83751   1.36074   1.60400
 1191  N   1.54583   1.17629   1.32070   1.49220
 1192  H   0.67067
 1193  C   1.07535   0.88794   1.07676   0.92841
 1194  H   0.81613
 1195  C   1.07782   1.15023   1.16586   1.01738
 1196  H   0.80613
 1197  H   0.83622
 1198  C   1.07077   0.72698   0.73630   0.70059
 1199  O   1.88746   1.67369   1.49481   1.66688
 1200  O   1.87016   1.79393   1.43282   1.78356
 1201  C   1.08906   0.81894   0.79499   0.74995
 1202  O   1.88710   1.28950   1.79684   1.57739
 1203  N   1.56614   1.29246   1.17004   1.53752
 1204  H   0.68156
 1205  C   1.08007   1.02160   0.91669   0.95374
 1206  H   0.83870
 1207  C   1.05577   1.07861   1.20272   0.96243
 1208  H   0.81399
 1209  H   0.81883
 1210  C   1.07454   0.97374   0.97798   0.97070
 1211  C   1.09004   1.04131   1.04106   1.01392
 1212  H   0.83946
 1213  C   1.08871   0.98515   1.06197   1.01018
 1214  H   0.84199
 1215  C   1.08752   1.05970   0.99146   1.03187
 1216  H   0.84745
 1217  C   1.08946   1.03672   1.03627   0.98871
 1218  H   0.83127
 1219  C   1.08718   0.98672   1.06389   1.02429
 1220  H   0.83886
 1221  C   1.08904   0.80322   0.77418   0.76414
 1222  O   1.88538   1.44300   1.55826   1.71376
 1223  N   1.53943   1.41477   1.43753   1.13608
 1224  H   0.68528
 1225  C   1.06856   0.98864   1.06822   0.98118
 1226  H   0.81236
 1227  H   0.80652
 1228  C   1.07944   0.82854   0.77918   0.70608
 1229  O   1.87687   1.84096   1.32434   1.61198
 1230  N   1.55776   1.29860   1.23350   1.44676
 1231  H   0.67306
 1232  C   1.07754   0.89862   1.03260   0.96795
 1233  H   0.83349
 1234  C   1.06795   1.11291   0.95092   1.17541
 1235  H   0.83823
 1236  H   0.82882
 1237  C   1.05174   1.03242   0.96113   1.00983
 1238  H   0.86391
 1239  C   1.05602   1.16822   1.06664   1.16486
 1240  H   0.85776
 1241  H   0.84435
 1242  H   0.85491
 1243  C   1.05570   1.17122   1.18879   1.04698
 1244  H   0.84138
 1245  H   0.84228
 1246  H   0.85711
 1247  C   1.09508   0.85742   0.76551   0.72560
 1248  O   1.88119   1.32482   1.78557   1.59408
 1249  N   1.58223   1.28184   1.23351   1.52142
 1250  H   0.66069
 1251  C   1.06842   0.96430   0.99717   0.95440
 1252  H   0.83669
 1253  C   1.05864   1.13984   1.09745   1.17441
 1254  H   0.84392
 1255  H   0.81019
 1256  H   0.81030
 1257  C   1.07587   0.83419   0.75220   0.78146
 1258  O   1.88392   1.49952   1.59964   1.64944
 1259  N   1.54296   1.31134   1.51230   1.14412
 1260  H   0.67614
 1261  C   1.06250   0.92423   1.14577   1.10586
 1262  H   0.82636
 1263  H   0.82962
 1264  H   0.83900
 1265  H   0.84138
 1266  C   1.10470   0.72486   0.79423   0.87716
 1267  O   1.88385   1.53300   1.36184   1.88320
 1268  N   1.54280   1.48744   1.35127   1.14846
 1269  H   0.67727
 1270  C   1.07287   1.11769   0.96749   0.82243
 1271  H   0.80322
 1272  C   1.05766   1.09007   1.02724   1.14952
 1273  H   0.83746
 1274  H   0.82210
 1275  C   1.06411   0.97748   0.94916   0.96761
 1276  C   1.08265   1.02002   0.99389   1.05851
 1277  H   0.84014
 1278  C   1.08221   1.04749   1.02804   0.99869
 1279  H   0.84529
 1280  C   1.08114   1.00722   1.05582   1.02578
 1281  H   0.85001
 1282  C   1.08052   1.02443   1.00323   1.05467
 1283  H   0.85493
 1284  C   1.08301   1.05837   1.02578   0.99547
 1285  H   0.84049
 1286  C   1.08044   0.76612   0.78599   0.79872
 1287  O   1.88389   1.53902   1.68008   1.53348
 1288  N   1.53662   1.17624   1.34797   1.43202
 1289  H   0.67275
 1290  C   1.05817   1.14235   0.97694   0.99786
 1291  H   0.81398
 1292  H   0.78712
 1293  C   1.07319   0.78263   0.75102   0.80181
 1294  O   1.87261   1.55411   1.39768   1.84260
 1295  N   1.53498   1.40671   1.37212   1.17630
 1296  H   0.64873
 1297  C   1.07479   1.00351   1.20107   0.87799
 1298  H   0.80854
 1299  H   0.79359
 1300  C   1.08138   0.77435   0.74548   0.80726
 1301  O   1.88286   1.52195   1.53283   1.73161
 1302  N   1.56507   1.44458   1.16661   1.26712
 1303  C   1.07054   1.06984   0.86812   1.05592
 1304  H   0.83628
 1305  H   0.83931
 1306  C   1.05726   1.04657   1.13851   1.05929
 1307  H   0.84620
 1308  H   0.80532
 1309  C   1.06101   1.08217   0.98325   1.17214
 1310  H   0.83508
 1311  H   0.81957
 1312  C   1.07346   1.05234   1.00114   0.86781
 1313  H   0.81341
 1314  C   1.08826   0.76351   0.76814   0.82859
 1315  O   1.88394   1.42713   1.43541   1.88338
 1316  N   1.54313   1.40350   1.48391   1.11754
 1317  H   0.64359
 1318  C   1.08219   1.04961   1.11421   0.89126
 1319  H   0.80082
 1320  H   0.78749
 1321  C   1.08832   0.82550   0.73024   0.77832
 1322  O   1.88490   1.70336   1.72969   1.32971
 1323  N   1.55109   1.23223   1.41110   1.34482
 1324  H   0.68806
 1325  C   1.07570   0.86019   1.06406   0.97860
 1326  H   0.82211
 1327  C   1.05961   1.16893   1.07552   0.97641
 1328  H   0.83471
 1329  H   0.83907
 1330  C   1.05817   1.13846   1.07479   1.02399
 1331  H   0.82456
 1332  H   0.87168
 1333  C   1.06376   1.08744   1.10000   0.78141
 1334  H   0.85058
 1335  H   0.81927
 1336  N   1.53282   1.62698   1.28988   1.09341
 1337  H   0.64879
 1338  C   0.97600   0.83628   0.80286   0.79451
 1339  N   1.50147   1.56332   1.25853   1.24811
 1340  H   0.67469
 1341  H   0.62638
 1342  N   1.50407   1.55703   1.35355   1.14117
 1343  H   0.64454
 1344  H   0.63722
 1345  C   1.08261   0.75727   0.77370   0.84380
 1346  O   1.88768   1.48044   1.64688   1.56781
 1347  N   1.54269   1.54531   1.19720   1.23973
 1348  H   0.67313
 1349  C   1.08990   1.00085   1.01006   0.92018
 1350  H   0.80148
 1351  C   1.08599   0.92994   0.92601   0.87779
 1352  H   0.85118
 1353  C   1.05849   1.09892   1.12810   1.20465
 1354  H   0.82471
 1355  H   0.83304
 1356  H   0.83160
 1357  O   1.84277   1.58415   1.64130   1.56967
 1358  H   0.62469
 1359  C   1.07898   0.81215   0.79098   0.76175
 1360  O   1.88715   1.53864   1.79240   1.37153
 1361  N   1.55263   1.32705   1.29578   1.37681
 1362  H   0.65236
 1363  C   1.07401   0.98870   0.92734   0.99320
 1364  H   0.81747
 1365  C   1.05781   1.09527   1.06814   1.08696
 1366  H   0.84141
 1367  H   0.82681
 1368  C   1.06133   0.97163   0.97487   1.05794
 1369  C   1.08292   0.97267   1.07975   0.99254
 1370  H   0.84408
 1371  C   1.08263   1.08148   0.99529   1.01246
 1372  H   0.80788
 1373  C   1.06615   0.82616   0.89583   0.91417
 1374  O   1.84134   1.46936   1.54064   1.69599
 1375  H   0.63900
 1376  C   1.07372   0.99033   1.09208   1.07024
 1377  H   0.84718
 1378  C   1.08150   1.06394   0.99916   0.99730
 1379  H   0.85870
 1380  C   1.08210   0.77618   0.73394   0.82112
 1381  O   1.88473   1.39067   1.55626   1.82945
 1382  N   1.55037   1.20072   1.60166   1.14804
 1383  H   0.66090
 1384  C   1.08714   1.11681   1.03458   0.83761
 1385  H   0.82127
 1386  C   1.08254   0.83228   0.89094   1.00026
 1387  H   0.86859
 1388  C   1.05717   1.09848   1.14095   1.18965
 1389  H   0.83079
 1390  H   0.84572
 1391  H   0.84159
 1392  O   1.84701   1.32398   1.76626   1.66687
 1393  H   0.61645
 1394  C   1.08216   0.82828   0.76385   0.79220
 1395  O   1.88734   1.29199   1.70632   1.67731
 1396  N   1.54293   1.22798   1.27092   1.47588
 1397  H   0.64933
 1398  C   1.07060   0.98372   1.04052   1.07622
 1399  H   0.84395
 1400  H   0.80873
 1401  C   1.07039   0.85093   0.72011   0.75161
 1402  O   1.88496   1.70097   1.45762   1.55963
 1403  N   1.55351   1.14732   1.51365   1.33247
 1404  H   0.67996
 1405  C   1.07064   0.82934   0.98740   1.12885
 1406  H   0.81455
 1407  C   1.05330   1.16409   0.98989   1.05216
 1408  H   0.83943
 1409  H   0.83622
 1410  C   1.05979   1.20536   1.01214   1.13833
 1411  H   0.84292
 1412  H   0.82624
 1413  C   1.06692   0.72349   0.72079   0.72859
 1414  O   1.88772   1.47215   1.82267   1.63600
 1415  O   1.88499   1.51813   1.58623   1.81429
 1416  C   1.08677   0.77113   0.86245   0.75463
 1417  O   1.88732   1.64846   1.65293   1.40938
 1418  N   1.54585   1.31030   1.19198   1.47852
 1419  H   0.65328
 1420  C   1.07214   1.06276   0.88114   1.00762
 1421  H   0.84360
 1422  C   1.05449   1.01868   1.03231   0.97091
 1423  H   0.83624
 1424  C   1.05591   1.17744   1.04870   1.19328
 1425  H   0.84539
 1426  H   0.83581
 1427  H   0.83796
 1428  C   1.05456   1.18134   1.16762   1.06146
 1429  H   0.84078
 1430  H   0.83979
 1431  H   0.85197
 1432  C   1.07570   0.77109   0.73161   0.84216
 1433  O   1.88367   1.36372   1.63733   1.76948
 1434  N   1.53828   1.27319   1.47280   1.21105
 1435  H   0.66892
 1436  C   1.07709   1.00719   1.05473   0.86812
 1437  H   0.82262
 1438  C   1.06066   1.02658   1.01603   0.97679
 1439  H   0.84045
 1440  C   1.05419   1.18423   1.09824   1.12137
 1441  H   0.84089
 1442  H   0.84071
 1443  H   0.85073
 1444  C   1.05737   1.18972   1.16669   1.05252
 1445  H   0.84619
 1446  H   0.83542
 1447  H   0.83891
 1448  C   1.08154   0.80663   0.78641   0.75128
 1449  O   1.88318   1.81146   1.47315   1.46021
 1450  N   1.53604   1.23691   1.43135   1.31665
 1451  H   0.66467
 1452  C   1.07958   0.90442   0.96823   1.14831
 1453  H   0.80515
 1454  C   1.07971   0.93523   0.82463   0.98303
 1455  H   0.86678
 1456  C   1.05746   1.09510   1.13583   1.19620
 1457  H   0.82485
 1458  H   0.82194
 1459  H   0.84142
 1460  O   1.84758   1.47780   1.49379   1.78184
 1461  H   0.64864
 1462  C   1.07073   0.75360   0.82649   0.79810
 1463  O   1.88054   1.50729   1.88265   1.36456
 1464  N   1.53716   1.55017   1.12174   1.29443
 1465  H   0.65704
 1466  C   1.05410   1.16779   0.87319   1.13586
 1467  H   0.83023
 1468  H   0.83673
 1469  H   0.85123
 1470  H   0.82723
 1471  C   1.10850   0.72194   0.77563   0.90301
 1472  O   1.87917   1.50024   1.39719   1.89103
 1473  N   1.54808   1.50773   1.35868   1.13688
 1474  H   0.67062
 1475  C   1.07819   1.08317   1.04084   0.80200
 1476  H   0.80364
 1477  C   1.05902   1.13423   0.99958   1.10166
 1478  H   0.81859
 1479  H   0.82216
 1480  C   1.06594   0.97593   0.99299   1.00554
 1481  C   1.08233   0.99071   1.02468   1.00448
 1482  H   0.83762
 1483  C   1.07636   1.10512   1.04981   1.06621
 1484  H   0.82029
 1485  C   1.07255   0.88643   0.88190   0.87954
 1486  O   1.83870   1.35502   1.61287   1.73267
 1487  H   0.61908
 1488  C   1.07843   0.98863   1.10013   1.09717
 1489  H   0.82125
 1490  C   1.08812   1.07847   0.97891   0.96905
 1491  H   0.83537
 1492  C   1.08086   0.79998   0.76890   0.79200
 1493  O   1.88630   1.81384   1.69954   1.28034
 1494  N   1.53470   1.25583   1.50888   1.18461
 1495  H   0.67093
 1496  C   1.06143   0.92034   1.08958   1.16683
 1497  H   0.83438
 1498  H   0.82967
 1499  H   0.83844
 1500  H   0.82490
 1501  C   1.10803   0.78633   0.88375   0.71616
 1502  O   1.88011   1.43048   1.87065   1.50909
 1503  N   1.55069   1.37512   1.18537   1.44525
 1504  H   0.64443
 1505  C   1.07867   0.96574   0.86323   1.12908
 1506  H   0.81492
 1507  C   1.05975   0.97990   0.99674   1.07641
 1508  H   0.84641
 1509  C   1.05206   1.15821   1.06257   1.17611
 1510  H   0.84443
 1511  H   0.84458
 1512  H   0.84173
 1513  C   1.04784   0.99991   1.12971   1.08496
 1514  H   0.86673
 1515  H   0.85359
 1516  C   1.04904   1.11601   1.12958   1.14943
 1517  H   0.85864
 1518  H   0.85755
 1519  H   0.84112
 1520  C   1.07241   0.85958   0.73797   0.75023
 1521  O   1.87627   1.57599   1.55601   1.67376
 1522  N   1.54217   1.18498   1.41742   1.37465
 1523  H   0.66205
 1524  C   1.07135   0.87894   1.16328   1.10827
 1525  H   0.84312
 1526  H   0.83229
 1527  H   0.83418
 1528  H   0.82766
 1529  C   1.10762   0.84803   0.73302   0.82100
 1530  O   1.88536   1.81621   1.62604   1.36636
 1531  N   1.53786   1.25351   1.40330   1.30549
 1532  H   0.64775
 1533  C   1.05908   0.89180   1.04055   1.02409
 1534  H   0.81974
 1535  C   1.06065   1.03209   1.11433   1.11511
 1536  H   0.82465
 1537  H   0.84712
 1538  C   1.04451   0.99041   0.96354   1.05937
 1539  H   0.88119
 1540  C   1.05461   1.16354   1.06798   1.18091
 1541  H   0.83744
 1542  H   0.84768
 1543  H   0.85404
 1544  C   1.05258   1.12335   1.17246   1.10860
 1545  H   0.85731
 1546  H   0.84736
 1547  H   0.84077
 1548  C   1.07866   0.72952   0.86481   0.77482
 1549  O   1.88190   1.57523   1.45117   1.73519
 1550  N   1.53998   1.57300   1.21231   1.19379
 1551  H   0.66191
 1552  C   1.07185   1.01906   0.93492   0.96188
 1553  H   0.81151
 1554  C   1.05668   1.17083   1.07951   0.99158
 1555  H   0.82407
 1556  H   0.82587
 1557  C   1.05680   1.12999   1.08798   1.03639
 1558  H   0.85329
 1559  H   0.82409
 1560  C   1.06362   1.15818   0.94486   0.90191
 1561  H   0.81629
 1562  H   0.83545
 1563  N   1.52416   1.16146   1.42476   1.39819
 1564  H   0.63977
 1565  C   0.99143   0.79127   0.81235   0.81837
 1566  N   1.51718   1.11635   1.46805   1.48663
 1567  H   0.65577
 1568  H   0.63930
 1569  N   1.50867   1.25121   1.39992   1.41138
 1570  H   0.64202
 1571  H   0.64048
 1572  C   1.08174   0.87170   0.77064   0.74343
 1573  O   1.88707   1.61018   1.60140   1.53097
 1574  N   1.53974   1.17486   1.27108   1.51432
 1575  H   0.65670
 1576  C   1.07443   0.85628   1.08644   1.03970
 1577  H   0.82235
 1578  C   1.06139   1.16464   1.09826   0.98342
 1579  H   0.84192
 1580  H   0.83805
 1581  C   1.04770   1.08171   0.96084   0.94835
 1582  H   0.86929
 1583  C   1.05597   1.17128   1.16295   1.07736
 1584  H   0.85475
 1585  H   0.86153
 1586  H   0.84637
 1587  C   1.05688   1.15868   1.09150   1.15810
 1588  H   0.85180
 1589  H   0.86099
 1590  H   0.84334
 1591  C   1.08282   0.71508   0.76191   0.70287
 1592  O   1.88401   1.46759   1.86974   1.62346
 1593  O   1.88773   1.54657   1.59316   1.80239

 **********************
 *                    *
 * JOB ENDED NORMALLY *
 *                    *
 **********************



 TOTAL JOB TIME:          2974.17 SECONDS

 == MOPAC DONE ==
