 *******************************************************************************
 **                                                                           **
 **                              MOPAC v23.2.2                                **
 **                                                                           **
 *******************************************************************************
 **          Digital Object Identifier (DOI): 10.5281/zenodo.6511958          **
 **    Visit the DOI location for information on how to cite this program.    **
 *******************************************************************************

                              PM7 CALCULATION RESULTS

 *******************************************************************************
 *  CALCULATION DONE: (MAX THREADS = 24)             Thu Jan 22 22:06:37 2026  *
 *  PM7        - The PM7 Hamiltonian to be used
 *
 *
 *
 *                 CHARGE ON SYSTEM = +2
 *
 *
 *
 *  EPS=78.4   - USE ANDREAS KLAMT'S COSMO IMPLICIT SOLVATION MODEL
 *  XYZ        - CARTESIAN COORDINATE SYSTEM TO BE USED
 *  1SCF       - DO 1 SCF AND THEN STOP 
 *  T=         - A TIME OF 172800.0 SECONDS REQUESTED
 *  DUMP=N     - RESTART FILE WRITTEN EVERY 7200.0 SECONDS REQUESTED
 *******************************************************************************
PM7 1SCF XYZ CHARGE=2 EPS=78.4


   ATOM   CHEMICAL          X               Y               Z
  NUMBER   SYMBOL      (ANGSTROMS)     (ANGSTROMS)     (ANGSTROMS)

     1       H         71.69100000  *  165.23700000  * -45.36000000  *
     2       C         70.72700000  *  165.64400000  * -45.02500000  *
     3       O         70.67100000  *  166.69300000  * -44.40000000  *
     4       N         69.64800000  *  164.94600000  * -45.35400000  *
     5       H         69.74300000  *  164.08600000  * -45.86500000  *
     6       C         68.31800000  *  165.37700000  * -44.95100000  *
     7       H         68.30400000  *  166.44500000  * -44.75000000  *
     8       C         67.27900000  *  165.08100000  * -46.05800000  *
     9       H         67.27200000  *  164.02200000  * -46.29800000  *
    10       C         65.89200000  *  165.46600000  * -45.59200000  *
    11       H         65.46400000  *  166.22900000  * -46.24500000  *
    12       H         65.23700000  *  164.60600000  * -45.62700000  *
    13       H         65.87600000  *  165.89500000  * -44.58400000  *
    14       C         67.63700000  *  165.85600000  * -47.31700000  *
    15       H         68.59400000  *  165.52900000  * -47.70800000  *
    16       H         66.87900000  *  165.66900000  * -48.07700000  *
    17       H         67.68800000  *  166.92100000  * -47.10100000  *
    18       C         67.91500000  *  164.66400000  * -43.65700000  *
    19       O         67.55300000  *  165.30600000  * -42.67600000  *
    20       N         67.98400000  *  163.33800000  * -43.65800000  *
    21       H         68.28400000  *  162.85200000  * -44.48600000  *
    22       C         67.62300000  *  162.54400000  * -42.48700000  *
    23       H         67.90600000  *  163.07600000  * -41.58100000  *
    24       C         66.12800000  *  162.23500000  * -42.45900000  *
    25       H         65.92600000  *  161.47400000  * -43.20900000  *
    26       H         65.88500000  *  161.80700000  * -41.48800000  *
    27       C         65.21300000  *  163.39800000  * -42.74000000  *
    28       H         65.33100000  *  164.15700000  * -41.96400000  *
    29       H         65.45900000  *  163.81400000  * -43.69700000  *
    30       C         63.76600000  *  162.97200000  * -42.82400000  *
    31       O         63.44700000  *  162.11400000  * -43.67900000  *
    32       O         62.94800000  *  163.49400000  * -42.03400000  *
    33       C         68.34700000  *  161.22200000  * -42.57700000  *
    34       O         68.73000000  *  160.78800000  * -43.66100000  *
    35       N         68.52400000  *  160.57500000  * -41.43500000  *
    36       H         68.03000000  *  160.89100000  * -40.60600000  *
    37       C         69.17300000  *  159.28200000  * -41.42100000  *
    38       H         69.95100000  *  159.22100000  * -42.17800000  *
    39       C         69.75600000  *  159.01000000  * -40.03200000  *
    40       H         70.21900000  *  159.94300000  * -39.71800000  *
    41       H         68.96300000  *  158.79100000  * -39.31600000  *
    42       C         70.79800000  *  157.89600000  * -39.98300000  *
    43       H         70.31100000  *  156.94100000  * -40.17400000  *
    44       H         71.53800000  *  158.07300000  * -40.76900000  *
    45       C         71.50100000  *  157.83200000  * -38.61800000  *
    46       H         70.74900000  *  157.59000000  * -37.86000000  *
    47       H         72.23100000  *  157.01800000  * -38.63800000  *
    48       C         72.18600000  *  159.16200000  * -38.26900000  *
    49       H         72.83200000  *  159.42500000  * -39.10900000  *
    50       H         71.41200000  *  159.93100000  * -38.15600000  *
    51       N         73.00000000  *  159.10500000  * -37.02500000  *
    52       H         73.70000000  *  158.37000000  * -37.07400000  *
    53       H         73.43800000  *  159.98800000  * -36.79300000  *
    54       H         72.39100000  *  158.85400000  * -36.25100000  *
    55       C         68.06200000  *  158.28700000  * -41.74800000  *
    56       O         67.16300000  *  158.08100000  * -40.94600000  *
    57       N         68.06100000  *  157.73100000  * -42.96200000  *
    58       H         68.85700000  *  157.91400000  * -43.55200000  *
    59       C         67.13600000  *  156.65300000  * -43.36000000  *
    60       H         66.11900000  *  157.04800000  * -43.37700000  *
    61       C         67.48500000  *  156.13000000  * -44.77000000  *
    62       H         68.56400000  *  156.15700000  * -44.89400000  *
    63       C         67.03600000  *  154.67500000  * -44.98600000  *
    64       H         65.98100000  *  154.56100000  * -44.73800000  *
    65       H         67.21600000  *  154.38200000  * -46.01200000  *
    66       H         67.61400000  *  153.99200000  * -44.36300000  *
    67       C         66.86800000  *  157.08200000  * -45.81000000  *
    68       H         65.78700000  *  156.95800000  * -45.82000000  *
    69       H         67.07800000  *  158.10200000  * -45.49900000  *
    70       C         67.41500000  *  156.90500000  * -47.23200000  *
    71       H         67.12600000  *  155.94000000  * -47.63700000  *
    72       H         67.01800000  *  157.68600000  * -47.87800000  *
    73       H         68.49800000  *  156.97800000  * -47.22700000  *
    74       C         67.15700000  *  155.54200000  * -42.31000000  *
    75       O         66.10700000  *  155.08000000  * -41.86000000  *
    76       N         68.36400000  *  155.15000000  * -41.90400000  *
    77       H         69.18400000  *  155.56500000  * -42.33400000  *
    78       C         68.57000000  *  154.22900000  * -40.80400000  *
    79       H         68.60900000  *  154.79000000  * -39.87100000  *
    80       H         67.73800000  *  153.52600000  * -40.74800000  *
    81       C         69.86500000  *  153.44900000  * -40.94000000  *
    82       O         70.90300000  *  153.95900000  * -41.36700000  *
    83       N         69.79200000  *  152.20300000  * -40.50200000  *
    84       H         68.87800000  *  151.84800000  * -40.25500000  *
    85       C         70.92900000  *  151.47900000  * -39.95800000  *
    86       H         71.83700000  *  152.07700000  * -40.05600000  *
    87       C         70.66600000  *  151.25500000  * -38.45900000  *
    88       H         69.83800000  *  150.55700000  * -38.32900000  *
    89       H         71.56900000  *  150.82500000  * -38.04900000  *
    90       C         70.35500000  *  152.55100000  * -37.68200000  *
    91       H         71.16300000  *  153.26600000  * -37.84800000  *
    92       H         69.43800000  *  153.00100000  * -38.06800000  *
    93       C         70.16500000  *  152.30800000  * -36.17800000  *
    94       O         69.21000000  *  151.59800000  * -35.78800000  *
    95       O         70.92100000  *  152.89800000  * -35.37100000  *
    96       C         71.12100000  *  150.18000000  * -40.74800000  *
    97       O         70.39100000  *  149.20300000  * -40.56300000  *
    98       N         72.03600000  *  150.21100000  * -41.71900000  *
    99       H         72.66500000  *  151.00500000  * -41.77800000  *
   100       C         72.16600000  *  149.17400000  * -42.74200000  *
   101       H         71.17300000  *  148.82700000  * -43.03100000  *
   102       H         72.63300000  *  149.61800000  * -43.62000000  *
   103       C         72.99300000  *  147.95800000  * -42.32200000  *
   104       O         73.50600000  *  147.86100000  * -41.20900000  *
   105       N         73.18800000  *  147.04600000  * -43.27400000  *
   106       H         72.72000000  *  147.17200000  * -44.16200000  *
   107       C         74.04800000  *  145.84800000  * -43.16800000  *
   108       H         73.79000000  *  145.29800000  * -42.26300000  *
   109       C         73.80500000  *  144.92900000  * -44.37700000  *
   110       H         74.58500000  *  144.16800000  * -44.43700000  *
   111       C         72.45500000  *  144.23300000  * -44.28600000  *
   112       H         71.64600000  *  144.96300000  * -44.29700000  *
   113       H         72.34700000  *  143.55900000  * -45.13500000  *
   114       H         72.41700000  *  143.64200000  * -43.37000000  *
   115       O         73.81500000  *  145.71000000  * -45.54700000  *
   116       H         73.28800000  *  145.25800000  * -46.24100000  *
   117       C         75.54900000  *  146.15300000  * -43.09900000  *
   118       O         76.29300000  *  145.32500000  * -42.58000000  *
   119       N         75.98200000  *  147.32800000  * -43.57900000  *
   120       H         75.29300000  *  147.89700000  * -44.04300000  *
   121       C         77.39800000  *  147.71900000  * -43.72100000  *
   122       H         78.01800000  *  147.07000000  * -43.10100000  *
   123       C         77.82700000  *  147.53200000  * -45.18800000  *
   124       H         77.22200000  *  148.18400000  * -45.81900000  *
   125       H         78.86700000  *  147.83900000  * -45.29900000  *
   126       C         77.73600000  *  146.11600000  * -45.70000000  *
   127       C         78.65500000  *  145.16000000  * -45.23500000  *
   128       H         79.43300000  *  145.44600000  * -44.53800000  *
   129       C         78.54600000  *  143.82600000  * -45.65600000  *
   130       H         79.24700000  *  143.09700000  * -45.28200000  *
   131       C         77.51500000  *  143.44900000  * -46.54300000  *
   132       O         77.36700000  *  142.15100000  * -46.89600000  *
   133       H         77.82300000  *  141.58300000  * -46.24700000  *
   134       C         76.61400000  *  144.41500000  * -47.03300000  *
   135       H         75.81500000  *  144.12400000  * -47.69600000  *
   136       C         76.73300000  *  145.75100000  * -46.61700000  *
   137       H         76.02600000  *  146.48700000  * -46.97300000  *
   138       C         77.72700000  *  149.16400000  * -43.30100000  *
   139       O         78.86900000  *  149.58400000  * -43.46500000  *
   140       N         76.77100000  *  149.94800000  * -42.79200000  *
   141       H         75.85900000  *  149.56500000  * -42.59500000  *
   142       C         76.98500000  *  151.36600000  * -42.47500000  *
   143       H         77.53500000  *  151.45100000  * -41.54100000  *
   144       H         77.59500000  *  151.81300000  * -43.25200000  *
   145       C         75.68500000  *  152.16100000  * -42.34500000  *
   146       O         74.61900000  *  151.56800000  * -42.15300000  *
   147       N         75.75500000  *  153.49500000  * -42.44900000  *
   148       H         76.58800000  *  153.89400000  * -42.85900000  *
   149       C         74.59200000  *  154.32600000  * -42.21200000  *
   150       H         73.82600000  *  153.78000000  * -41.65800000  *
   151       C         74.95900000  *  155.54800000  * -41.37000000  *
   152       H         75.70700000  *  156.13900000  * -41.89300000  *
   153       C         73.73100000  *  156.40900000  * -41.13300000  *
   154       H         72.94300000  *  155.80300000  * -40.68200000  *
   155       H         73.98600000  *  157.21200000  * -40.45000000  *
   156       H         73.36800000  *  156.84900000  * -42.06500000  *
   157       C         75.54500000  *  155.09600000  * -40.05300000  *
   158       H         76.46000000  *  154.52800000  * -40.19800000  *
   159       H         75.77700000  *  155.95300000  * -39.42300000  *
   160       H         74.80500000  *  154.48400000  * -39.53200000  *
   161       C         74.01900000  *  154.79200000  * -43.53700000  *
   162       O         74.76100000  *  155.18400000  * -44.43700000  *
   163       N         72.70100000  *  154.66100000  * -43.66600000  *
   164       H         72.17300000  *  154.35000000  * -42.85400000  *
   165       C         71.92800000  *  155.10500000  * -44.82500000  *
   166       H         72.58900000  *  155.16400000  * -45.68700000  *
   167       C         70.78900000  *  154.11900000  * -45.16000000  *
   168       H         69.95500000  *  154.29400000  * -44.48200000  *
   169       C         70.31600000  *  154.35100000  * -46.60000000  *
   170       H         71.12100000  *  154.13600000  * -47.30100000  *
   171       H         69.47000000  *  153.70000000  * -46.82100000  *
   172       H         70.00600000  *  155.38400000  * -46.73300000  *
   173       C         71.18500000  *  152.64600000  * -45.00700000  *
   174       H         72.08800000  *  152.44400000  * -45.57700000  *
   175       H         71.35600000  *  152.41000000  * -43.95600000  *
   176       H         70.37500000  *  152.00900000  * -45.36500000  *
   177       C         71.36400000  *  156.49200000  * -44.52800000  *
   178       O         70.65500000  *  156.65000000  * -43.53000000  *
   179       N         71.62500000  *  157.49000000  * -45.37400000  *
   180       H         72.23900000  *  157.32200000  * -46.16900000  *
   181       C         71.01800000  *  158.79600000  * -45.21900000  *
   182       H         70.37900000  *  158.84300000  * -44.33800000  *
   183       C         72.10000000  *  159.86100000  * -45.06900000  *
   184       H         72.79900000  *  159.78100000  * -45.90500000  *
   185       H         71.63400000  *  160.84400000  * -45.14300000  *
   186       C         72.87100000  *  159.84300000  * -43.76800000  *
   187       C         72.34700000  *  160.43100000  * -42.61900000  *
   188       H         71.37700000  *  160.90600000  * -42.66800000  *
   189       C         73.06400000  *  160.45200000  * -41.42500000  *
   190       H         72.63300000  *  160.94600000  * -40.56800000  *
   191       C         74.33000000  *  159.87400000  * -41.37100000  *
   192       O         75.04700000  *  159.90100000  * -40.18700000  *
   193       H         74.69700000  *  160.54100000  * -39.56800000  *
   194       C         74.87500000  *  159.27800000  * -42.50300000  *
   195       H         75.78500000  *  158.71900000  * -42.41900000  *
   196       C         74.14000000  *  159.26700000  * -43.69600000  *
   197       H         74.51800000  *  158.73300000  * -44.56500000  *
   198       C         70.16700000  *  159.17400000  * -46.42900000  *
   199       O         70.41800000  *  158.72400000  * -47.55600000  *
   200       N         69.02200000  *  159.81900000  * -46.21000000  *
   201       H         68.83000000  *  160.12100000  * -45.26100000  *
   202       C         68.29500000  *  160.50100000  * -47.27900000  *
   203       H         68.28300000  *  159.89800000  * -48.18900000  *
   204       C         66.85200000  *  160.81500000  * -46.83900000  *
   205       H         66.34000000  *  159.88400000  * -46.60500000  *
   206       H         66.87100000  *  161.43000000  * -45.93700000  *
   207       C         66.04800000  *  161.53900000  * -47.93100000  *
   208       H         66.52500000  *  162.49000000  * -48.17400000  *
   209       H         66.02900000  *  160.92100000  * -48.82900000  *
   210       C         64.61100000  *  161.80800000  * -47.45800000  *
   211       H         64.15300000  *  160.87100000  * -47.13600000  *
   212       H         64.63900000  *  162.49200000  * -46.60800000  *
   213       C         63.77400000  *  162.41800000  * -48.59100000  *
   214       H         64.29500000  *  163.30200000  * -48.97400000  *
   215       H         63.70800000  *  161.68600000  * -49.40300000  *
   216       N         62.41100000  *  162.79600000  * -48.13200000  *
   217       H         62.44700000  *  163.49500000  * -47.40300000  *
   218       H         61.86500000  *  163.18500000  * -48.88900000  *
   219       H         61.90600000  *  162.00000000  * -47.76800000  *
   220       C         69.10500000  *  161.75800000  * -47.50800000  *
   221       O         69.33800000  *  162.49000000  * -46.54800000  *
   222       N         69.55500000  *  162.00600000  * -48.72500000  *
   223       H         69.34400000  *  161.34200000  * -49.46700000  *
   224       C         70.34900000  *  163.18200000  * -49.01700000  *
   225       H         70.22500000  *  163.93500000  * -48.24000000  *
   226       C         71.81400000  *  162.79200000  * -49.07000000  *
   227       H         71.97800000  *  162.06700000  * -49.86400000  *
   228       H         72.42900000  *  163.67700000  * -49.23900000  *
   229       H         72.10500000  *  162.33200000  * -48.12600000  *
   230       C         69.94400000  *  163.83800000  * -50.32200000  *
   231       O         69.22100000  *  163.25100000  * -51.12800000  *
   232       N         70.40700000  *  165.06400000  * -50.52400000  *
   233       H         70.93200000  *  165.53000000  * -49.79600000  *
   234       C         70.10800000  *  165.77900000  * -51.74600000  *
   235       H         69.54100000  *  165.15900000  * -52.44400000  *
   236       H         69.52200000  *  166.69100000  * -51.53000000  *
   237       H         71.05900000  *  166.04700000  * -52.23900000  *
   238       H         68.08600000  *  164.80700000  * -56.55000000  *
   239       C         68.21200000  *  164.39600000  * -55.53600000  *
   240       O         69.28600000  *  164.50800000  * -54.94200000  *
   241       N         67.13500000  *  163.82300000  * -55.01100000  *
   242       H         66.34000000  *  163.66800000  * -55.61500000  *
   243       C         67.13600000  *  163.21200000  * -53.68800000  *
   244       H         67.86300000  *  163.70700000  * -53.05000000  *
   245       C         65.75500000  *  163.32300000  * -53.02900000  *
   246       H         64.97700000  *  163.06900000  * -53.75000000  *
   247       C         65.64800000  *  162.36600000  * -51.85200000  *
   248       H         66.47200000  *  162.51800000  * -51.15200000  *
   249       H         64.69700000  *  162.53800000  * -51.34700000  *
   250       H         65.65200000  *  161.33900000  * -52.20000000  *
   251       C         65.54000000  *  164.75000000  * -52.56600000  *
   252       H         65.62600000  *  165.42400000  * -53.41600000  *
   253       H         64.53500000  *  164.85100000  * -52.15900000  *
   254       H         66.28400000  *  165.00300000  * -51.81000000  *
   255       C         67.52600000  *  161.76000000  * -53.84700000  *
   256       O         66.97900000  *  161.02800000  * -54.68200000  *
   257       N         68.49600000  *  161.34900000  * -53.04800000  *
   258       H         68.91100000  *  161.99700000  * -52.39100000  *
   259       C         69.01100000  *  159.99200000  * -53.10200000  *
   260       H         68.34600000  *  159.34100000  * -53.67900000  *
   261       C         70.37400000  *  159.97400000  * -53.81600000  *
   262       H         70.77500000  *  158.96500000  * -53.87500000  *
   263       C         70.21400000  *  160.50700000  * -55.21300000  *
   264       H         69.95700000  *  161.56600000  * -55.19000000  *
   265       H         71.15100000  *  160.39100000  * -55.75600000  *
   266       H         69.44200000  *  159.95000000  * -55.73600000  *
   267       C         71.37900000  *  160.85000000  * -53.05700000  *
   268       H         71.56500000  *  160.44500000  * -52.06400000  *
   269       H         72.31500000  *  160.84900000  * -53.61300000  *
   270       H         71.03600000  *  161.88400000  * -52.98400000  *
   271       C         69.19200000  *  159.37200000  * -51.72900000  *
   272       O         69.02000000  *  160.03600000  * -50.68600000  *
   273       N         69.38100000  *  158.05800000  * -51.70300000  *
   274       H         69.45300000  *  157.56400000  * -52.58800000  *
   275       C         69.75800000  *  157.32200000  * -50.51200000  *
   276       H         69.48000000  *  157.88700000  * -49.62400000  *
   277       C         68.99600000  *  156.00400000  * -50.46900000  *
   278       H         69.20400000  *  155.43000000  * -51.36900000  *
   279       H         69.29900000  *  155.42900000  * -49.59300000  *
   280       H         67.92900000  *  156.21300000  * -50.40700000  *
   281       C         71.27600000  *  157.14000000  * -50.53700000  *
   282       O         71.81000000  *  156.45900000  * -51.41900000  *
   283       N         71.97000000  *  157.79100000  * -49.60300000  *
   284       H         71.44500000  *  158.28300000  * -48.88900000  *
   285       C         73.41300000  *  157.73400000  * -49.53500000  *
   286       H         73.80300000  *  157.43200000  * -50.50200000  *
   287       C         73.96100000  *  159.11400000  * -49.18200000  *
   288       H         73.49200000  *  159.84000000  * -49.85100000  *
   289       H         73.62800000  *  159.35800000  * -48.16900000  *
   290       C         75.47300000  *  159.31600000  * -49.26600000  *
   291       H         75.96900000  *  158.63700000  * -48.57100000  *
   292       C         75.94900000  *  159.02000000  * -50.68400000  *
   293       H         75.44100000  *  159.71800000  * -51.34800000  *
   294       H         77.02400000  *  159.18800000  * -50.76300000  *
   295       H         75.74700000  *  157.98700000  * -50.96800000  *
   296       C         75.80400000  *  160.74000000  * -48.87900000  *
   297       H         75.43700000  *  160.94600000  * -47.87600000  *
   298       H         76.88200000  *  160.87900000  * -48.92200000  *
   299       H         75.32000000  *  161.42900000  * -49.57600000  *
   300       C         73.82100000  *  156.71600000  * -48.48500000  *
   301       O         73.39600000  *  156.78100000  * -47.33400000  *
   302       N         74.64700000  *  155.75200000  * -48.88400000  *
   303       H         74.88900000  *  155.73100000  * -49.87300000  *
   304       C         75.13000000  *  154.63800000  * -48.05800000  *
   305       H         74.61200000  *  154.62700000  * -47.09700000  *
   306       C         74.83400000  *  153.32900000  * -48.82600000  *
   307       H         74.33100000  *  153.57100000  * -49.76400000  *
   308       H         75.76500000  *  152.82700000  * -49.09200000  *
   309       C         73.93100000  *  152.32600000  * -48.10500000  *
   310       H         73.10500000  *  152.85100000  * -47.62800000  *
   311       H         73.51500000  *  151.67700000  * -48.87400000  *
   312       C         74.69400000  *  151.47400000  * -47.07400000  *
   313       H         75.65900000  *  151.17400000  * -47.48600000  *
   314       H         74.88700000  *  152.08400000  * -46.18700000  *
   315       C         73.92100000  *  150.20700000  * -46.66400000  *
   316       H         74.49300000  *  149.70500000  * -45.87800000  *
   317       H         72.95600000  *  150.50400000  * -46.23600000  *
   318       N         73.70800000  *  149.27700000  * -47.81200000  *
   319       H         74.57100000  *  149.04200000  * -48.28600000  *
   320       H         73.26900000  *  148.39000000  * -47.53300000  *
   321       H         73.05700000  *  149.67100000  * -48.48200000  *
   322       C         76.62300000  *  154.83900000  * -47.79500000  *
   323       O         77.41500000  *  154.66000000  * -48.71200000  *
   324       N         77.01700000  *  155.22600000  * -46.58100000  *
   325       H         76.29800000  *  155.26800000  * -45.86500000  *
   326       C         78.42200000  *  155.28900000  * -46.15900000  *
   327       H         79.06600000  *  155.59300000  * -46.98900000  *
   328       C         78.56700000  *  156.26000000  * -44.97900000  *
   329       H         78.02700000  *  155.87500000  * -44.10900000  *
   330       H         79.62500000  *  156.33900000  * -44.73000000  *
   331       C         78.01500000  *  157.64300000  * -45.34000000  *
   332       H         78.45100000  *  157.95800000  * -46.27300000  *
   333       H         76.93600000  *  157.57500000  * -45.50000000  *
   334       C         78.25100000  *  158.72500000  * -44.27900000  *
   335       H         77.97800000  *  159.68000000  * -44.73200000  *
   336       H         77.56000000  *  158.53300000  * -43.46900000  *
   337       C         79.67700000  *  158.85000000  * -43.70900000  *
   338       H         80.38400000  *  158.36300000  * -44.39700000  *
   339       H         79.95000000  *  159.91100000  * -43.68600000  *
   340       N         79.78800000  *  158.26900000  * -42.33500000  *
   341       H         79.63700000  *  157.26100000  * -42.37000000  *
   342       H         80.69600000  *  158.42600000  * -41.93200000  *
   343       H         79.10400000  *  158.64600000  * -41.70100000  *
   344       C         78.82300000  *  153.89100000  * -45.72900000  *
   345       O         78.09100000  *  153.31500000  * -44.93700000  *
   346       N         79.90700000  *  153.32000000  * -46.24700000  *
   347       H         80.40500000  *  153.76400000  * -47.01000000  *
   348       C         80.34300000  *  152.02200000  * -45.76800000  *
   349       H         79.49500000  *  151.49800000  * -45.35900000  *
   350       C         80.94400000  *  151.18600000  * -46.89500000  *
   351       H         81.78600000  *  151.78200000  * -47.16900000  *
   352       C         81.42400000  *  149.85200000  * -46.34500000  *
   353       H         80.65600000  *  149.35200000  * -45.75200000  *
   354       H         81.67900000  *  149.19900000  * -47.17900000  *
   355       H         82.34500000  *  149.95700000  * -45.76100000  *
   356       C         79.89700000  *  150.97600000  * -47.99700000  *
   357       H         79.60200000  *  151.87000000  * -48.50000000  *
   358       H         80.28300000  *  150.30500000  * -48.75000000  *
   359       C         78.59100000  *  150.36100000  * -47.52600000  *
   360       H         78.17700000  *  150.90100000  * -46.69000000  *
   361       H         77.89400000  *  150.33700000  * -48.36300000  *
   362       H         78.77100000  *  149.33300000  * -47.20900000  *
   363       C         81.33300000  *  152.07100000  * -44.61400000  *
   364       O         82.16700000  *  152.98000000  * -44.51900000  *
   365       N         81.21100000  *  151.07100000  * -43.74300000  *
   366       H         80.50300000  *  150.36100000  * -43.92800000  *
   367       C         82.04400000  *  150.90200000  * -42.55200000  *
   368       H         81.47500000  *  151.18100000  * -41.66300000  *
   369       H         82.35800000  *  149.86100000  * -42.45900000  *
   370       H         82.94700000  *  151.51400000  * -42.62000000  *
   371       H         81.25700000  *  144.04600000  * -57.89900000  *
   372       C         80.50000000  *  144.84100000  * -57.88800000  *
   373       O         79.71500000  *  144.99000000  * -58.82400000  *
   374       N         80.49900000  *  145.60300000  * -56.79700000  *
   375       H         81.28000000  *  145.52500000  * -56.16600000  *
   376       C         79.57000000  *  146.70600000  * -56.61200000  *
   377       H         78.57500000  *  146.34400000  * -56.42300000  *
   378       C         80.00500000  *  147.61000000  * -55.44200000  *
   379       H         80.89800000  *  148.18000000  * -55.68500000  *
   380       C         78.90600000  *  148.60800000  * -55.12500000  *
   381       H         77.92000000  *  148.14100000  * -55.17600000  *
   382       H         79.04500000  *  148.98700000  * -54.11600000  *
   383       H         78.93800000  *  149.43600000  * -55.83300000  *
   384       C         80.32100000  *  146.76200000  * -54.20900000  *
   385       H         81.19200000  *  146.13400000  * -54.40600000  *
   386       H         80.59400000  *  147.42200000  * -53.38900000  *
   387       C         79.18400000  *  145.87900000  * -53.76500000  *
   388       H         78.77800000  *  145.31100000  * -54.59400000  *
   389       H         79.50900000  *  145.12200000  * -53.06500000  *
   390       H         78.38800000  *  146.48300000  * -53.33500000  *
   391       C         79.54300000  *  147.54500000  * -57.87900000  *
   392       O         78.48200000  *  147.77900000  * -58.45100000  *
   393       N         80.72300000  *  147.98900000  * -58.30900000  *
   394       H         81.55800000  *  147.70100000  * -57.81200000  *
   395       C         80.85900000  *  148.80400000  * -59.51100000  *
   396       H         80.33900000  *  149.74600000  * -59.38600000  *
   397       H         81.92800000  *  148.98500000  * -59.72900000  *
   398       H         80.37800000  *  148.32200000  * -60.38100000  *
   399       H         78.96400000  *  146.08700000  * -61.65600000  *
   400       C         77.87300000  *  146.08700000  * -61.51600000  *
   401       O         77.11500000  *  145.89500000  * -62.46400000  *
   402       N         77.44600000  *  146.31800000  * -60.28000000  *
   403       H         78.13400000  *  146.42500000  * -59.54900000  *
   404       C         76.02800000  *  146.35200000  * -59.94500000  *
   405       H         75.53300000  *  145.47600000  * -60.35900000  *
   406       C         75.84100000  *  146.37400000  * -58.43100000  *
   407       H         76.20500000  *  147.30400000  * -58.01800000  *
   408       H         74.76300000  *  146.35700000  * -58.24200000  *
   409       C         76.47200000  *  145.22200000  * -57.65900000  *
   410       H         77.55000000  *  145.23900000  * -57.74900000  *
   411       C         76.08000000  *  145.34100000  * -56.19200000  *
   412       H         74.99900000  *  145.23000000  * -56.07700000  *
   413       H         76.57300000  *  144.55300000  * -55.62900000  *
   414       H         76.38500000  *  146.30900000  * -55.80100000  *
   415       C         75.99600000  *  143.89000000  * -58.23600000  *
   416       H         76.41500000  *  143.73000000  * -59.22900000  *
   417       H         76.32800000  *  143.07800000  * -57.59100000  *
   418       H         74.90500000  *  143.87400000  * -58.30500000  *
   419       C         75.32200000  *  147.55900000  * -60.54800000  *
   420       O         74.09500000  *  147.56800000  * -60.66200000  *
   421       N         76.08400000  *  148.63100000  * -60.82900000  *
   422       H         77.08200000  *  148.53500000  * -60.67700000  *
   423       C         75.60100000  *  149.83300000  * -61.53400000  *
   424       H         74.83700000  *  150.33500000  * -60.94100000  *
   425       H         76.43800000  *  150.53300000  * -61.75900000  *
   426       H         75.13800000  *  149.54900000  * -62.49200000  *
   427       H         62.79000000  *  145.77200000  * -59.27600000  *
   428       C         63.71000000  *  145.72000000  * -58.67500000  *
   429       O         63.77900000  *  145.02200000  * -57.66400000  *
   430       N         64.72400000  *  146.45200000  * -59.11400000  *
   431       H         64.63800000  *  147.05100000  * -59.92700000  *
   432       C         65.97100000  *  146.53500000  * -58.38100000  *
   433       H         65.88400000  *  146.09200000  * -57.38600000  *
   434       C         67.11600000  *  145.87700000  * -59.11400000  *
   435       H         67.33600000  *  146.42600000  * -60.03000000  *
   436       C         68.35100000  *  145.87800000  * -58.21400000  *
   437       H         68.14700000  *  145.31400000  * -57.31800000  *
   438       H         69.21000000  *  145.44500000  * -58.72400000  *
   439       H         68.64100000  *  146.89000000  * -57.94500000  *
   440       C         66.72800000  *  144.44400000  * -59.47800000  *
   441       H         66.54900000  *  143.87300000  * -58.56400000  *
   442       H         65.81500000  *  144.42400000  * -60.06800000  *
   443       C         67.77400000  *  143.72700000  * -60.29600000  *
   444       H         68.68300000  *  143.57700000  * -59.72200000  *
   445       H         67.37700000  *  142.75300000  * -60.59800000  *
   446       H         68.02300000  *  144.31300000  * -61.18000000  *
   447       C         66.29500000  *  148.01000000  * -58.22000000  *
   448       O         66.21200000  *  148.78000000  * -59.18400000  *
   449       N         66.54900000  *  148.44200000  * -56.98100000  *
   450       H         66.61600000  *  147.76200000  * -56.22800000  *
   451       C         66.88600000  *  149.84100000  * -56.68800000  *
   452       H         66.07300000  *  150.48300000  * -57.02900000  *
   453       C         67.08000000  *  150.06600000  * -55.18100000  *
   454       H         67.87100000  *  149.41000000  * -54.81500000  *
   455       C         67.45600000  *  151.51500000  * -54.85200000  *
   456       H         66.64300000  *  152.19100000  * -55.11600000  *
   457       H         67.65900000  *  151.59200000  * -53.78600000  *
   458       H         68.35300000  *  151.81500000  * -55.38900000  *
   459       C         65.78900000  *  149.75300000  * -54.42200000  *
   460       H         65.53700000  *  148.69900000  * -54.50600000  *
   461       H         65.93800000  *  149.98100000  * -53.37400000  *
   462       H         64.97000000  *  150.35200000  * -54.81300000  *
   463       C         68.15000000  *  150.21600000  * -57.45300000  *
   464       O         69.17800000  *  149.54500000  * -57.32800000  *
   465       N         68.08000000  *  151.28300000  * -58.25100000  *
   466       H         67.22500000  *  151.80400000  * -58.24500000  *
   467       C         69.18900000  *  151.69800000  * -59.08000000  *
   468       H         69.52500000  *  150.81900000  * -59.63900000  *
   469       C         68.73700000  *  152.76800000  * -60.08300000  *
   470       H         67.83400000  *  152.41100000  * -60.57900000  *
   471       H         68.47700000  *  153.68100000  * -59.53700000  *
   472       C         69.79100000  *  153.06900000  * -61.13100000  *
   473       H         70.72100000  *  153.35000000  * -60.64200000  *
   474       H         69.97400000  *  152.16800000  * -61.71600000  *
   475       C         69.35100000  *  154.17900000  * -62.08100000  *
   476       H         68.50200000  *  153.81400000  * -62.66100000  *
   477       H         69.02300000  *  155.05600000  * -61.52200000  *
   478       C         70.49800000  *  154.55900000  * -63.02400000  *
   479       H         71.33900000  *  154.89000000  * -62.40800000  *
   480       H         70.81900000  *  153.66100000  * -63.56600000  *
   481       N         70.11800000  *  155.62600000  * -63.99700000  *
   482       H         69.74700000  *  156.41600000  * -63.48300000  *
   483       H         70.92600000  *  155.93300000  * -64.52500000  *
   484       H         69.41500000  *  155.27800000  * -64.63600000  *
   485       C         70.36000000  *  152.21400000  * -58.25300000  *
   486       O         70.19400000  *  153.07400000  * -57.38700000  *
   487       N         71.53700000  *  151.64500000  * -58.50700000  *
   488       H         71.59600000  *  150.90400000  * -59.18600000  *
   489       C         72.75000000  *  152.07400000  * -57.83600000  *
   490       H         72.53800000  *  152.52600000  * -56.87100000  *
   491       C         73.72700000  *  150.91100000  * -57.67000000  *
   492       H         73.31500000  *  150.22100000  * -56.93700000  *
   493       H         73.77900000  *  150.36900000  * -58.62000000  *
   494       C         75.16700000  *  151.27300000  * -57.28800000  *
   495       H         75.65500000  *  151.80300000  * -58.10000000  *
   496       C         75.18300000  *  152.16500000  * -56.05900000  *
   497       H         74.60800000  *  151.72100000  * -55.25200000  *
   498       H         76.21000000  *  152.29600000  * -55.73500000  *
   499       H         74.78900000  *  153.14000000  * -56.31200000  *
   500       C         75.93300000  *  149.99400000  * -57.01300000  *
   501       H         75.98300000  *  149.42100000  * -57.93300000  *
   502       H         76.94600000  *  150.24200000  * -56.71200000  *
   503       H         75.43500000  *  149.41000000  * -56.23200000  *
   504       C         73.31900000  *  153.11300000  * -58.79500000  *
   505       O         73.76900000  *  152.77900000  * -59.89700000  *
   506       N         73.26700000  *  154.36900000  * -58.37800000  *
   507       H         72.92600000  *  154.57000000  * -57.44900000  *
   508       C         73.73400000  *  155.46600000  * -59.19700000  *
   509       H         73.47500000  *  155.26500000  * -60.23600000  *
   510       C         73.02500000  *  156.74200000  * -58.76000000  *
   511       H         73.45000000  *  157.06300000  * -57.80900000  *
   512       H         73.23600000  *  157.53300000  * -59.48700000  *
   513       C         71.51300000  *  156.60300000  * -58.58700000  *
   514       H         71.27400000  *  155.80900000  * -57.88500000  *
   515       C         70.97400000  *  157.88000000  * -58.01900000  *
   516       H         71.37000000  *  158.74600000  * -58.56000000  *
   517       H         69.88800000  *  157.89100000  * -58.09300000  *
   518       H         71.22100000  *  157.96000000  * -56.96600000  *
   519       C         70.85100000  *  156.29000000  * -59.92300000  *
   520       H         71.28300000  *  155.39700000  * -60.34200000  *
   521       H         69.78900000  *  156.14400000  * -59.75100000  *
   522       H         71.00300000  *  157.12700000  * -60.60700000  *
   523       C         75.24500000  *  155.67800000  * -59.15800000  *
   524       O         75.83900000  *  156.04700000  * -60.17600000  *
   525       N         75.86200000  *  155.44600000  * -57.99600000  *
   526       H         75.29500000  *  155.17900000  * -57.20400000  *
   527       C         77.30800000  *  155.64700000  * -57.82900000  *
   528       H         77.80800000  *  155.40400000  * -58.76600000  *
   529       C         77.60000000  *  157.11700000  * -57.51900000  *
   530       H         76.91700000  *  157.54400000  * -56.80300000  *
   531       H         78.58200000  *  157.17000000  * -57.04800000  *
   532       C         77.65600000  *  157.97500000  * -58.75600000  *
   533       O         78.67800000  *  157.91700000  * -59.48300000  *
   534       O         76.67400000  *  158.70400000  * -59.00000000  *
   535       C         77.97900000  *  154.81700000  * -56.73400000  *
   536       O         77.37100000  *  154.52100000  * -55.70400000  *
   537       N         79.24700000  *  154.47700000  * -56.96600000  *
   538       H         79.69800000  *  154.82400000  * -57.79800000  *
   539       C         80.06100000  *  153.73800000  * -56.00300000  *
   540       H         79.55400000  *  153.69900000  * -55.05200000  *
   541       C         80.36600000  *  152.29800000  * -56.50400000  *
   542       H         79.42700000  *  151.75200000  * -56.56200000  *
   543       C         80.98100000  *  152.34300000  * -57.88400000  *
   544       H         82.06600000  *  152.43300000  * -57.82100000  *
   545       H         80.74600000  *  151.41400000  * -58.37900000  *
   546       H         80.59600000  *  153.14500000  * -58.51000000  *
   547       C         81.29900000  *  151.58800000  * -55.53900000  *
   548       H         80.81100000  *  151.54900000  * -54.57200000  *
   549       H         81.47300000  *  150.57200000  * -55.87800000  *
   550       H         82.25900000  *  152.09200000  * -55.44900000  *
   551       C         81.36500000  *  154.53600000  * -55.81000000  *
   552       O         82.27000000  *  154.48900000  * -56.64700000  *
   553       N         81.45200000  *  155.28200000  * -54.71000000  *
   554       H         80.67600000  *  155.30400000  * -54.06400000  *
   555       C         82.62100000  *  156.11100000  * -54.44300000  *
   556       H         83.20500000  *  156.21800000  * -55.35800000  *
   557       H         82.32200000  *  157.12800000  * -54.14500000  *
   558       H         83.29700000  *  155.73900000  * -53.65600000  *
   559       H         84.58000000  *  155.17100000  * -47.07300000  *
   560       C         84.22500000  *  154.98400000  * -48.09100000  *
   561       O         84.63900000  *  155.65900000  * -49.04200000  *
   562       N         83.35800000  *  153.99100000  * -48.22200000  *
   563       H         83.13600000  *  153.42800000  * -47.41700000  *
   564       C         82.77600000  *  153.65100000  * -49.50600000  *
   565       H         83.37000000  *  154.04700000  * -50.31700000  *
   566       C         82.71900000  *  152.14000000  * -49.66000000  *
   567       H         83.74000000  *  151.87500000  * -49.95700000  *
   568       H         82.64400000  *  151.54600000  * -48.78400000  *
   569       C         81.82600000  *  151.61900000  * -50.77900000  *
   570       H         80.79100000  *  151.88400000  * -50.58700000  *
   571       C         82.25800000  *  152.23100000  * -52.09200000  *
   572       H         83.31100000  *  152.49100000  * -52.08900000  *
   573       H         82.09300000  *  151.51300000  * -52.88400000  *
   574       H         81.65400000  *  153.10900000  * -52.31200000  *
   575       C         81.89900000  *  150.09400000  * -50.82200000  *
   576       H         81.91300000  *  149.66400000  * -49.82700000  *
   577       H         81.05200000  *  149.70600000  * -51.39100000  *
   578       H         82.82500000  *  149.80300000  * -51.32100000  *
   579       C         81.36700000  *  154.23200000  * -49.54800000  *
   580       O         80.51800000  *  153.85700000  * -48.74500000  *
   581       N         81.13100000  *  155.16100000  * -50.46700000  *
   582       H         81.84500000  *  155.34800000  * -51.16200000  *
   583       C         79.82200000  *  155.78100000  * -50.60800000  *
   584       H         79.27400000  *  155.67000000  * -49.68700000  *
   585       C         79.96700000  *  157.27800000  * -50.86800000  *
   586       H         80.42300000  *  157.50400000  * -51.79700000  *
   587       H         78.95400000  *  157.66400000  * -50.98900000  *
   588       C         80.57600000  *  158.04300000  * -49.72300000  *
   589       C         79.79300000  *  158.48000000  * -48.65600000  *
   590       H         78.73500000  *  158.25400000  * -48.66900000  *
   591       C         80.35600000  *  159.18600000  * -47.59400000  *
   592       H         79.75300000  *  159.56200000  * -46.79700000  *
   593       C         81.71600000  *  159.45200000  * -47.58700000  *
   594       O         82.27600000  *  160.12500000  * -46.52100000  *
   595       H         83.20600000  *  160.30800000  * -46.74500000  *
   596       C         82.51400000  *  159.02600000  * -48.63700000  *
   597       H         83.58200000  *  159.23300000  * -48.65000000  *
   598       C         81.94100000  *  158.32800000  * -49.69800000  *
   599       H         82.57400000  *  157.98100000  * -50.50200000  *
   600       C         79.04800000  *  155.15800000  * -51.76500000  *
   601       O         79.54400000  *  155.08000000  * -52.88800000  *
   602       N         77.86200000  *  154.62500000  * -51.49400000  *
   603       H         77.53700000  *  154.64700000  * -50.53400000  *
   604       C         76.98000000  *  154.05500000  * -52.51100000  *
   605       H         77.50500000  *  153.99900000  * -53.45900000  *
   606       C         76.54500000  *  152.62500000  * -52.14600000  *
   607       H         75.86100000  *  152.67500000  * -51.30700000  *
   608       H         75.99400000  *  152.21900000  * -52.99500000  *
   609       C         77.68100000  *  151.65400000  * -51.78500000  *
   610       H         78.19600000  *  152.00300000  * -50.89000000  *
   611       C         77.10900000  *  150.26600000  * -51.50100000  *
   612       H         76.61000000  *  149.87500000  * -52.39000000  *
   613       H         77.91400000  *  149.58700000  * -51.21600000  *
   614       H         76.39500000  *  150.32200000  * -50.68100000  *
   615       C         78.68600000  *  151.52600000  * -52.92300000  *
   616       H         79.20600000  *  152.47100000  * -53.05900000  *
   617       H         79.42200000  *  150.76500000  * -52.67500000  *
   618       H         78.17200000  *  151.25800000  * -53.84700000  *
   619       C         75.78600000  *  154.98600000  * -52.67200000  *
   620       O         75.10300000  *  155.26400000  * -51.68200000  *
   621       N         75.54700000  *  155.50800000  * -53.87800000  *
   622       H         76.14500000  *  155.25500000  * -54.66000000  *
   623       C         74.40900000  *  156.37500000  * -54.09400000  *
   624       H         73.97600000  *  156.70200000  * -53.15000000  *
   625       C         74.83400000  *  157.63700000  * -54.81800000  *
   626       H         75.25500000  *  157.34500000  * -55.76600000  *
   627       C         73.61400000  *  158.52200000  * -55.10900000  *
   628       H         73.11700000  *  158.76900000  * -54.17500000  *
   629       H         73.94100000  *  159.43100000  * -55.61500000  *
   630       H         72.91600000  *  158.00900000  * -55.76200000  *
   631       C         75.84000000  *  158.38200000  * -53.94900000  *
   632       H         75.28100000  *  158.78400000  * -53.13000000  *
   633       H         76.65600000  *  157.75800000  * -53.60500000  *
   634       H         76.26100000  *  159.20400000  * -54.52500000  *
   635       C         73.31400000  *  155.64400000  * -54.85300000  *
   636       O         73.49500000  *  155.22100000  * -55.99400000  *
   637       N         72.19500000  *  155.41000000  * -54.16900000  *
   638       H         72.12900000  *  155.76600000  * -53.21900000  *
   639       C         71.01000000  *  154.74200000  * -54.70200000  *
   640       H         71.26000000  *  154.26400000  * -55.64500000  *
   641       C         70.54400000  *  153.66200000  * -53.72000000  *
   642       H         70.40200000  *  154.11500000  * -52.74000000  *
   643       H         69.57000000  *  153.29700000  * -54.04300000  *
   644       C         71.47700000  *  152.47400000  * -53.58000000  *
   645       C         71.36300000  *  151.37900000  * -54.45900000  *
   646       H         70.63200000  *  151.39600000  * -55.25500000  *
   647       C         72.19000000  *  150.25400000  * -54.30200000  *
   648       H         72.09200000  *  149.41100000  * -54.97300000  *
   649       C         73.14200000  *  150.22000000  * -53.26800000  *
   650       H         73.77800000  *  149.35300000  * -53.14600000  *
   651       C         73.26400000  *  151.31300000  * -52.39300000  *
   652       H         73.98800000  *  151.28000000  * -51.59400000  *
   653       C         72.43800000  *  152.44200000  * -52.55100000  *
   654       H         72.53300000  *  153.28000000  * -51.87300000  *
   655       C         69.88100000  *  155.74800000  * -54.95800000  *
   656       O         69.72300000  *  156.71500000  * -54.21200000  *
   657       N         69.07800000  *  155.53000000  * -56.00200000  *
   658       H         69.24600000  *  154.70600000  * -56.57000000  *
   659       C         67.81700000  *  156.27100000  * -56.18700000  *
   660       H         68.06400000  *  157.32000000  * -56.35600000  *
   661       C         67.06300000  *  155.75900000  * -57.42700000  *
   662       H         66.22500000  *  156.43200000  * -57.60900000  *
   663       H         67.72900000  *  155.79900000  * -58.29000000  *
   664       C         66.52700000  *  154.32700000  * -57.26800000  *
   665       H         67.36800000  *  153.65700000  * -57.08000000  *
   666       H         65.86000000  *  154.28500000  * -56.41000000  *
   667       C         65.72600000  *  153.81800000  * -58.46900000  *
   668       O         65.27000000  *  154.62200000  * -59.31400000  *
   669       O         65.50600000  *  152.58800000  * -58.52800000  *
   670       C         66.93600000  *  156.18900000  * -54.92300000  *
   671       O         66.85500000  *  155.13500000  * -54.29600000  *
   672       N         66.27800000  *  157.27500000  * -54.51800000  *
   673       H         66.32800000  *  158.12400000  * -55.06300000  *
   674       C         65.42600000  *  157.27000000  * -53.32200000  *
   675       H         65.92600000  *  156.69300000  * -52.54100000  *
   676       C         65.28500000  *  158.70300000  * -52.80700000  *
   677       H         66.28100000  *  159.10200000  * -52.62000000  *
   678       H         64.81500000  *  159.31800000  * -53.57700000  *
   679       C         64.49000000  *  158.81700000  * -51.52400000  *
   680       C         63.13900000  *  159.21400000  * -51.55300000  *
   681       H         62.66100000  *  159.45100000  * -52.49400000  *
   682       C         62.40500000  *  159.29600000  * -50.35800000  *
   683       H         61.36800000  *  159.60000000  * -50.38300000  *
   684       C         63.01600000  *  158.97800000  * -49.13300000  *
   685       H         62.44800000  *  159.03100000  * -48.21300000  *
   686       C         64.36800000  *  158.59800000  * -49.10500000  *
   687       H         64.84600000  *  158.37100000  * -48.16500000  *
   688       C         65.10400000  *  158.51100000  * -50.29700000  *
   689       H         66.14100000  *  158.20500000  * -50.26900000  *
   690       C         64.05000000  *  156.62200000  * -53.57000000  *
   691       O         63.41100000  *  156.89100000  * -54.59000000  *
   692       N         63.56800000  *  155.82300000  * -52.61000000  *
   693       H         64.16300000  *  155.62500000  * -51.81100000  *
   694       C         62.19000000  *  155.31200000  * -52.54800000  *
   695       H         61.57900000  *  155.81800000  * -53.29600000  *
   696       C         62.14300000  *  153.79900000  * -52.82100000  *
   697       H         62.89400000  *  153.29800000  * -52.21100000  *
   698       H         61.16500000  *  153.44300000  * -52.49300000  *
   699       C         62.32000000  *  153.42500000  * -54.30500000  *
   700       H         61.97300000  *  154.24400000  * -54.93500000  *
   701       C         63.77900000  *  153.11500000  * -54.63800000  *
   702       H         64.14700000  *  152.32200000  * -53.99100000  *
   703       H         63.87100000  *  152.81900000  * -55.68100000  *
   704       H         64.38900000  *  154.00200000  * -54.48100000  *
   705       C         61.49000000  *  152.18600000  * -54.65200000  *
   706       H         60.44200000  *  152.36200000  * -54.40700000  *
   707       H         61.56000000  *  151.98500000  * -55.71900000  *
   708       H         61.84600000  *  151.32200000  * -54.09500000  *
   709       C         61.57300000  *  155.62300000  * -51.17900000  *
   710       O         62.22900000  *  155.51800000  * -50.14900000  *
   711       N         60.31000000  *  156.04100000  * -51.15600000  *
   712       H         59.82400000  *  156.13100000  * -52.04000000  *
   713       C         59.71400000  *  156.72400000  * -50.00300000  *
   714       H         60.43400000  *  157.46000000  * -49.64300000  *
   715       C         58.47700000  *  157.49700000  * -50.47800000  *
   716       H         57.69400000  *  156.78400000  * -50.74000000  *
   717       H         58.12200000  *  158.11200000  * -49.65300000  *
   718       C         58.71600000  *  158.39600000  * -51.67000000  *
   719       N         58.85000000  *  157.97000000  * -52.99700000  *
   720       C         59.06700000  *  159.08300000  * -53.72100000  *
   721       H         59.21300000  *  159.10700000  * -54.79500000  *
   722       N         59.07300000  *  160.16500000  * -52.92400000  *
   723       H         59.21200000  *  161.12100000  * -53.23900000  *
   724       C         58.85300000  *  159.75300000  * -51.62800000  *
   725       H         58.79900000  *  160.37700000  * -50.74400000  *
   726       C         59.38900000  *  155.83700000  * -48.78400000  *
   727       O         59.16700000  *  156.37700000  * -47.70000000  *
   728       N         59.35400000  *  154.50400000  * -48.92600000  *
   729       H         59.54900000  *  154.11400000  * -49.83800000  *
   730       C         58.99400000  *  153.56600000  * -47.84900000  *
   731       H         59.40800000  *  153.94400000  * -46.91600000  *
   732       C         57.45600000  *  153.54500000  * -47.70700000  *
   733       H         57.12100000  *  154.55700000  * -47.47400000  *
   734       H         57.00000000  *  153.25300000  * -48.65500000  *
   735       C         56.95500000  *  152.60200000  * -46.60200000  *
   736       H         56.79500000  *  151.61200000  * -47.02400000  *
   737       H         57.71100000  *  152.52900000  * -45.82100000  *
   738       C         55.67300000  *  153.09000000  * -45.93900000  *
   739       O         55.69200000  *  153.76600000  * -44.92300000  *
   740       N         54.51300000  *  152.76900000  * -46.47000000  *
   741       H         53.68900000  *  153.11000000  * -45.99700000  *
   742       H         54.46900000  *  152.24200000  * -47.32400000  *
   743       C         59.58100000  *  152.15600000  * -48.07000000  *
   744       O         59.69700000  *  151.70400000  * -49.20900000  *
   745       N         59.93800000  *  151.45100000  * -46.98700000  *
   746       H         59.81300000  *  151.86800000  * -46.07900000  *
   747       C         60.28400000  *  150.02000000  * -47.02300000  *
   748       H         60.58400000  *  149.78500000  * -48.04000000  *
   749       C         61.51600000  *  149.70200000  * -46.14700000  *
   750       H         61.85300000  *  148.69800000  * -46.41100000  *
   751       H         62.31800000  *  150.38800000  * -46.42300000  *
   752       C         61.31800000  *  149.74100000  * -44.62300000  *
   753       O         60.25300000  *  149.31000000  * -44.13400000  *
   754       O         62.26100000  *  150.15800000  * -43.91200000  *
   755       C         59.07600000  *  149.11000000  * -46.71500000  *
   756       O         58.04500000  *  149.55100000  * -46.19100000  *
   757       N         59.19100000  *  147.81900000  * -47.04800000  *
   758       H         60.03800000  *  147.50900000  * -47.52500000  *
   759       C         58.10100000  *  146.88000000  * -46.84100000  *
   760       H         57.21800000  *  147.32500000  * -47.29300000  *
   761       C         58.41200000  *  145.57700000  * -47.59200000  *
   762       H         58.61300000  *  145.80400000  * -48.64400000  *
   763       H         59.28800000  *  145.12100000  * -47.15800000  *
   764       C         57.28700000  *  144.52700000  * -47.51900000  *
   765       H         57.05600000  *  144.28000000  * -46.48700000  *
   766       C         56.00700000  *  145.04400000  * -48.19600000  *
   767       H         56.23500000  *  145.37800000  * -49.20200000  *
   768       H         55.26800000  *  144.24500000  * -48.23100000  *
   769       H         55.59500000  *  145.87000000  * -47.62900000  *
   770       C         57.76800000  *  143.24900000  * -48.17500000  *
   771       H         58.61500000  *  142.85400000  * -47.62000000  *
   772       H         56.97300000  *  142.50400000  * -48.17100000  *
   773       H         58.06400000  *  143.44500000  * -49.20700000  *
   774       C         57.76400000  *  146.61300000  * -45.36900000  *
   775       O         56.60900000  *  146.37600000  * -45.03000000  *
   776       N         58.75700000  *  146.67700000  * -44.48800000  *
   777       H         59.64000000  *  147.08600000  * -44.79000000  *
   778       C         58.49100000  *  146.46700000  * -43.07300000  *
   779       H         57.97900000  *  145.55100000  * -42.87200000  *
   780       C         59.78200000  *  146.47800000  * -42.25400000  *
   781       H         60.44800000  *  145.70000000  * -42.62000000  *
   782       H         60.28600000  *  147.44000000  * -42.35600000  *
   783       C         59.49200000  *  146.22900000  * -40.76500000  *
   784       H         58.94200000  *  147.08300000  * -40.37400000  *
   785       H         58.87100000  *  145.33200000  * -40.67600000  *
   786       C         60.74500000  *  146.03800000  * -39.93500000  *
   787       H         61.36100000  *  145.25900000  * -40.37900000  *
   788       H         61.30800000  *  146.97100000  * -39.90700000  *
   789       C         60.37600000  *  145.60700000  * -38.51700000  *
   790       H         59.98500000  *  144.58900000  * -38.53700000  *
   791       H         61.27900000  *  145.61300000  * -37.90300000  *
   792       N         59.34600000  *  146.53100000  * -37.94700000  *
   793       H         58.44600000  *  146.48100000  * -38.44300000  *
   794       H         59.09000000  *  146.27800000  * -37.00400000  *
   795       H         59.61300000  *  147.50600000  * -37.97800000  *
   796       C         57.55800000  *  147.53800000  * -42.51200000  *
   797       O         56.61300000  *  147.23400000  * -41.78300000  *
   798       N         57.83700000  *  148.81000000  * -42.80900000  *
   799       H         58.66600000  *  148.99700000  * -43.37700000  *
   800       C         57.02200000  *  149.94000000  * -42.34800000  *
   801       H         56.92400000  *  149.88100000  * -41.26200000  *
   802       C         57.73900000  *  151.25400000  * -42.70000000  *
   803       H         58.76200000  *  151.20300000  * -42.32400000  *
   804       H         57.77600000  *  151.36900000  * -43.78300000  *
   805       C         57.05100000  *  152.47400000  * -42.07100000  *
   806       H         56.05100000  *  152.58500000  * -42.49200000  *
   807       H         56.95900000  *  152.31900000  * -40.99400000  *
   808       C         57.85700000  *  153.75700000  * -42.32100000  *
   809       H         58.83500000  *  153.66300000  * -41.84400000  *
   810       H         57.99800000  *  153.89800000  * -43.39400000  *
   811       C         57.11200000  *  154.96300000  * -41.73600000  *
   812       H         56.14100000  *  155.04900000  * -42.23500000  *
   813       H         56.92600000  *  154.77700000  * -40.67400000  *
   814       N         57.88200000  *  156.22200000  * -41.90000000  *
   815       H         58.04500000  *  156.43000000  * -42.87400000  *
   816       H         57.38400000  *  157.00400000  * -41.50000000  *
   817       H         58.77700000  *  156.16500000  * -41.43700000  *
   818       C         55.61200000  *  149.84700000  * -42.92800000  *
   819       O         54.63800000  *  150.09600000  * -42.22300000  *
   820       N         55.49500000  *  149.42600000  * -44.18900000  *
   821       H         56.35000000  *  149.26300000  * -44.71300000  *
   822       C         54.20500000  *  149.26000000  * -44.85200000  *
   823       H         53.62600000  *  150.17500000  * -44.72500000  *
   824       C         54.41000000  *  148.98800000  * -46.34000000  *
   825       H         54.98900000  *  149.80200000  * -46.77700000  *
   826       H         55.00200000  *  148.07700000  * -46.45200000  *
   827       C         53.12600000  *  148.85300000  * -47.10800000  *
   828       C         52.23100000  *  149.92200000  * -47.18600000  *
   829       H         52.46300000  *  150.85600000  * -46.69900000  *
   830       C         51.01500000  *  149.79500000  * -47.88400000  *
   831       H         50.32500000  *  150.62800000  * -47.91800000  *
   832       C         50.69700000  *  148.60300000  * -48.50200000  *
   833       H         49.75200000  *  148.50200000  * -49.02000000  *
   834       C         51.58700000  *  147.52100000  * -48.43200000  *
   835       H         51.33500000  *  146.58300000  * -48.91200000  *
   836       C         52.79500000  *  147.65400000  * -47.73300000  *
   837       H         53.46700000  *  146.81000000  * -47.67200000  *
   838       C         53.37400000  *  148.12200000  * -44.22700000  *
   839       O         52.16900000  *  148.28300000  * -44.00900000  *
   840       N         54.01600000  *  146.98100000  * -43.96600000  *
   841       H         55.00900000  *  146.90600000  * -44.17900000  *
   842       C         53.33800000  *  145.83600000  * -43.34100000  *
   843       H         52.47600000  *  145.52800000  * -43.93400000  *
   844       C         54.29200000  *  144.65000000  * -43.17000000  *
   845       H         55.15800000  *  145.02700000  * -42.63600000  *
   846       H         53.80700000  *  143.89200000  * -42.54700000  *
   847       C         54.73100000  *  144.00400000  * -44.46100000  *
   848       H         53.84700000  *  143.61400000  * -44.95900000  *
   849       H         55.19200000  *  144.69400000  * -45.15000000  *
   850       S         55.79700000  *  142.58100000  * -44.15400000  *
   851       C         57.05400000  *  143.29200000  * -43.18800000  *
   852       H         56.67800000  *  143.65800000  * -42.23500000  *
   853       H         57.80700000  *  142.53400000  * -42.98200000  *
   854       H         57.44300000  *  144.07900000  * -43.80900000  *
   855       C         52.84400000  *  146.26000000  * -41.95900000  *
   856       O         51.68200000  *  146.03200000  * -41.61400000  *
   857       N         53.72600000  *  146.88400000  * -41.17900000  *
   858       H         54.70100000  *  146.95700000  * -41.45300000  *
   859       C         53.34300000  *  147.35100000  * -39.84600000  *
   860       H         53.03400000  *  146.49700000  * -39.23800000  *
   861       C         54.50500000  *  148.07700000  * -39.15700000  *
   862       H         54.94100000  *  148.81500000  * -39.83000000  *
   863       H         54.12400000  *  148.60600000  * -38.28400000  *
   864       C         55.58400000  *  147.11500000  * -38.68500000  *
   865       O         55.26200000  *  145.90900000  * -38.57600000  *
   866       O         56.73300000  *  147.55200000  * -38.41700000  *
   867       C         52.15000000  *  148.27900000  * -39.96300000  *
   868       O         51.20300000  *  148.18000000  * -39.18700000  *
   869       N         52.18300000  *  149.16200000  * -40.95500000  *
   870       H         53.01600000  *  149.23700000  * -41.51800000  *
   871       C         51.08600000  *  150.10000000  * -41.17300000  *
   872       H         50.93100000  *  150.67400000  * -40.25800000  *
   873       C         51.42800000  *  151.06800000  * -42.31500000  *
   874       H         51.45500000  *  150.53900000  * -43.26600000  *
   875       H         50.66000000  *  151.83800000  * -42.36800000  *
   876       H         52.39300000  *  151.53600000  * -42.12800000  *
   877       C         49.78900000  *  149.37000000  * -41.49900000  *
   878       O         48.71100000  *  149.83600000  * -41.15600000  *
   879       N         49.90500000  *  148.22900000  * -42.16400000  *
   880       H         50.83800000  *  147.88500000  * -42.38200000  *
   881       C         48.74000000  *  147.45400000  * -42.57500000  *
   882       H         47.85700000  *  148.08600000  * -42.62800000  *
   883       H         48.90600000  *  147.02300000  * -43.58600000  *
   884       H         48.52600000  *  146.61900000  * -41.88800000  *
   885       H         72.54500000  *  137.05800000  * -55.15200000  *
   886       C         72.38600000  *  137.90500000  * -54.47400000  *
   887       O         73.28300000  *  138.71900000  * -54.28600000  *
   888       N         71.20100000  *  138.01500000  * -53.89800000  *
   889       H         70.47300000  *  137.31400000  * -54.05700000  *
   890       C         70.96800000  *  139.10000000  * -52.94900000  *
   891       H         71.50000000  *  140.00600000  * -53.22900000  *
   892       C         69.47700000  *  139.40500000  * -52.82500000  *
   893       H         69.09300000  *  139.71900000  * -53.79200000  *
   894       H         68.93000000  *  138.50600000  * -52.53300000  *
   895       C         69.17800000  *  140.45400000  * -51.81200000  *
   896       N         69.23000000  *  140.42300000  * -50.45900000  *
   897       C         68.94700000  *  141.69100000  * -50.01400000  *
   898       H         68.96900000  *  142.01200000  * -48.98400000  *
   899       N         68.72400000  *  142.47200000  * -51.05500000  *
   900       H         68.47200000  *  143.44500000  * -51.00700000  *
   901       C         68.85400000  *  141.75000000  * -52.15500000  *
   902       H         68.77100000  *  142.12600000  * -53.16500000  *
   903       C         71.52100000  *  138.65700000  * -51.58300000  *
   904       O         72.28000000  *  139.38000000  * -50.94700000  *
   905       N         71.11400000  *  137.47100000  * -51.14500000  *
   906       H         70.37100000  *  137.01600000  * -51.66500000  *
   907       C         71.55500000  *  136.88000000  * -49.87700000  *
   908       H         71.18200000  *  135.84900000  * -49.87900000  *
   909       C         73.07600000  *  136.85300000  * -49.83700000  *
   910       H         73.53100000  *  137.83300000  * -49.86900000  *
   911       H         73.36600000  *  136.47900000  * -48.85100000  *
   912       C         73.64700000  *  135.85900000  * -50.81700000  *
   913       H         73.29800000  *  134.87100000  * -50.67200000  *
   914       H         73.21600000  *  136.10500000  * -51.78700000  *
   915       C         75.11700000  *  136.08400000  * -50.99900000  *
   916       H         75.61200000  *  135.95400000  * -50.03300000  *
   917       H         75.49500000  *  135.33200000  * -51.69500000  *
   918       N         75.35800000  *  137.42700000  * -51.50600000  *
   919       H         74.62100000  *  138.12700000  * -51.38200000  *
   920       C         76.54800000  *  137.85900000  * -51.89000000  *
   921       N         77.59300000  *  137.04400000  * -51.81500000  *
   922       H         77.44700000  *  136.21200000  * -51.26800000  *
   923       H         78.49900000  *  137.44300000  * -51.92100000  *
   924       N         76.69000000  *  139.09300000  * -52.35600000  *
   925       H         75.86000000  *  139.69200000  * -52.33800000  *
   926       H         77.56200000  *  139.47800000  * -52.67100000  *
   927       C         71.03700000  *  137.42400000  * -48.54200000  *
   928       O         71.18700000  *  136.76800000  * -47.50900000  *
   929       N         70.43700000  *  138.60400000  * -48.51600000  *
   930       H         70.32800000  *  139.16900000  * -49.34700000  *
   931       C         69.93700000  *  139.07600000  * -47.23100000  *
   932       H         69.76500000  *  138.24900000  * -46.54100000  *
   933       C         70.93500000  *  140.04200000  * -46.56200000  *
   934       H         71.90900000  *  139.56600000  * -46.50900000  *
   935       H         71.04400000  *  140.94300000  * -47.17900000  *
   936       C         70.51300000  *  140.42800000  * -45.14700000  *
   937       O         70.17200000  *  139.51500000  * -44.35500000  *
   938       O         70.51000000  *  141.64400000  * -44.82500000  *
   939       C         68.58700000  *  139.73400000  * -47.37800000  *
   940       O         68.35000000  *  140.81000000  * -46.83500000  *
   941       N         67.68700000  *  139.08300000  * -48.11000000  *
   942       H         67.94300000  *  138.20800000  * -48.54500000  *
   943       C         66.35900000  *  139.64900000  * -48.29900000  *
   944       H         66.47700000  *  140.66700000  * -48.65900000  *
   945       C         65.54600000  *  138.81300000  * -49.28800000  *
   946       H         65.58300000  *  137.78400000  * -48.94500000  *
   947       H         64.50600000  *  139.14000000  * -49.25500000  *
   948       C         66.02700000  *  138.85500000  * -50.73600000  *
   949       H         67.06400000  *  138.52800000  * -50.78200000  *
   950       C         65.17300000  *  137.91700000  * -51.58300000  *
   951       H         64.15900000  *  138.30500000  * -51.68800000  *
   952       H         65.63400000  *  137.80700000  * -52.55000000  *
   953       H         65.13400000  *  136.93500000  * -51.11000000  *
   954       C         65.92100000  *  140.27700000  * -51.26400000  *
   955       H         66.42000000  *  140.99600000  * -50.63300000  *
   956       H         66.44200000  *  140.27500000  * -52.20900000  *
   957       H         64.88200000  *  140.56100000  * -51.39700000  *
   958       C         65.59400000  *  139.73400000  * -46.98200000  *
   959       O         65.58600000  *  138.79200000  * -46.16600000  *
   960       N         64.95700000  *  140.85600000  * -46.74400000  *
   961       H         64.96600000  *  141.58700000  * -47.44300000  *
   962       C         64.17500000  *  141.06900000  * -45.54100000  *
   963       H         63.56800000  *  140.17700000  * -45.39000000  *
   964       C         65.06200000  *  141.24800000  * -44.28900000  *
   965       H         64.43200000  *  141.32500000  * -43.40300000  *
   966       H         65.65900000  *  140.34400000  * -44.16400000  *
   967       C         66.00400000  *  142.45900000  * -44.31700000  *
   968       H         66.43100000  *  142.57000000  * -45.31100000  *
   969       H         65.44900000  *  143.36100000  * -44.06300000  *
   970       C         67.14600000  *  142.23400000  * -43.31800000  *
   971       H         66.73400000  *  142.00700000  * -42.33200000  *
   972       H         67.72500000  *  141.37300000  * -43.66100000  *
   973       C         68.05900000  *  143.45900000  * -43.21200000  *
   974       H         68.15500000  *  143.91900000  * -44.20000000  *
   975       H         67.58600000  *  144.19200000  * -42.54800000  *
   976       N         69.40000000  *  143.07100000  * -42.70100000  *
   977       H         69.87900000  *  142.46600000  * -43.38400000  *
   978       H         69.97500000  *  143.88500000  * -42.52500000  *
   979       H         69.31800000  *  142.56300000  * -41.83000000  *
   980       C         63.26800000  *  142.23100000  * -45.83500000  *
   981       O         63.62600000  *  143.07500000  * -46.65800000  *
   982       N         62.11200000  *  142.30300000  * -45.18600000  *
   983       C         61.62600000  *  141.34600000  * -44.17100000  *
   984       H         62.10000000  *  141.53200000  * -43.20900000  *
   985       H         61.74500000  *  140.31100000  * -44.47600000  *
   986       C         60.16400000  *  141.66900000  * -44.09500000  *
   987       H         59.73700000  *  141.34900000  * -43.14300000  *
   988       H         59.63700000  *  141.20600000  * -44.93200000  *
   989       C         60.16000000  *  143.18900000  * -44.24800000  *
   990       H         60.51600000  *  143.64900000  * -43.32100000  *
   991       H         59.20200000  *  143.56500000  * -44.57400000  *
   992       C         61.14500000  *  143.38000000  * -45.40300000  *
   993       H         60.63400000  *  143.20500000  * -46.34500000  *
   994       C         61.77100000  *  144.77100000  * -45.44800000  *
   995       O         61.39200000  *  145.58400000  * -46.27300000  *
   996       N         62.73300000  *  145.08900000  * -44.56300000  *
   997       H         62.98000000  *  144.39900000  * -43.86900000  *
   998       C         63.45200000  *  146.38600000  * -44.54000000  *
   999       H         62.72100000  *  147.19300000  * -44.45800000  *
  1000       C         64.39400000  *  146.45700000  * -43.32400000  *
  1001       H         65.08200000  *  145.61300000  * -43.35700000  *
  1002       H         64.98700000  *  147.37100000  * -43.40100000  *
  1003       C         63.68000000  *  146.48500000  * -41.96700000  *
  1004       H         62.98300000  *  147.32400000  * -41.95400000  *
  1005       H         63.11900000  *  145.56300000  * -41.83000000  *
  1006       C         64.66900000  *  146.62300000  * -40.80800000  *
  1007       O         65.68800000  *  145.94700000  * -40.74100000  *
  1008       N         64.41400000  *  147.48400000  * -39.84800000  *
  1009       H         65.07800000  *  147.56500000  * -39.09100000  *
  1010       H         63.60500000  *  148.08400000  * -39.89000000  *
  1011       C         64.30500000  *  146.67300000  * -45.79500000  *
  1012       O         64.54900000  *  147.82800000  * -46.13400000  *
  1013       N         64.76600000  *  145.62500000  * -46.48100000  *
  1014       H         64.45100000  *  144.70800000  * -46.19800000  *
  1015       C         65.54000000  *  145.69100000  * -47.72100000  *
  1016       H         66.10000000  *  146.62800000  * -47.75600000  *
  1017       C         66.55600000  *  144.51900000  * -47.75200000  *
  1018       H         66.06300000  *  143.59500000  * -47.46100000  *
  1019       H         66.91200000  *  144.37900000  * -48.77100000  *
  1020       C         67.80000000  *  144.72400000  * -46.89600000  *
  1021       O         68.11800000  *  145.81700000  * -46.45200000  *
  1022       N         68.55900000  *  143.68100000  * -46.63500000  *
  1023       H         69.44300000  *  143.83400000  * -46.17700000  *
  1024       H         68.30300000  *  142.72900000  * -46.88300000  *
  1025       C         64.63300000  *  145.70300000  * -48.97000000  *
  1026       O         65.15400000  *  145.61500000  * -50.08000000  *
  1027       N         63.30000000  *  145.80300000  * -48.83400000  *
  1028       H         62.89500000  *  145.87300000  * -47.90900000  *
  1029       C         62.40600000  *  145.84500000  * -49.97900000  *
  1030       H         62.94700000  *  145.74800000  * -50.91900000  *
  1031       C         61.36900000  *  144.72100000  * -49.88900000  *
  1032       H         60.76900000  *  144.86100000  * -48.99200000  *
  1033       H         60.74400000  *  144.79800000  * -50.77200000  *
  1034       C         62.03600000  *  143.32400000  * -49.85900000  *
  1035       H         62.67100000  *  143.24000000  * -48.98800000  *
  1036       C         61.00200000  *  142.26000000  * -49.77100000  *
  1037       H         60.24600000  *  142.42800000  * -50.53400000  *
  1038       H         61.44700000  *  141.27100000  * -49.89000000  *
  1039       H         60.52000000  *  142.31900000  * -48.79800000  *
  1040       C         62.89500000  *  143.12600000  * -51.08400000  *
  1041       H         63.82900000  *  143.66800000  * -50.95600000  *
  1042       H         63.12900000  *  142.06900000  * -51.20900000  *
  1043       H         62.39300000  *  143.49200000  * -51.96600000  *
  1044       C         61.76300000  *  147.21800000  * -49.95200000  *
  1045       O         61.15000000  *  147.60200000  * -48.96600000  *
  1046       N         61.89100000  *  147.98300000  * -51.03000000  *
  1047       H         62.38600000  *  147.61100000  * -51.83500000  *
  1048       C         61.44500000  *  149.37500000  * -51.06500000  *
  1049       H         61.06300000  *  149.67700000  * -50.09200000  *
  1050       C         62.61800000  *  150.28900000  * -51.40500000  *
  1051       H         62.94800000  *  150.07500000  * -52.42200000  *
  1052       H         62.25500000  *  151.31400000  * -51.36200000  *
  1053       C         63.81600000  *  150.14400000  * -50.46200000  *
  1054       H         64.26700000  *  149.16100000  * -50.58600000  *
  1055       C         64.82500000  *  151.20600000  * -50.84900000  *
  1056       H         64.45800000  *  152.18000000  * -50.53300000  *
  1057       H         65.77200000  *  150.98500000  * -50.36800000  *
  1058       H         64.97300000  *  151.23100000  * -51.92200000  *
  1059       C         63.46200000  *  150.34500000  * -48.99100000  *
  1060       H         62.91400000  *  149.48100000  * -48.62800000  *
  1061       H         64.36600000  *  150.44300000  * -48.39500000  *
  1062       H         62.84500000  *  151.23500000  * -48.87600000  *
  1063       C         60.32100000  *  149.56100000  * -52.06500000  *
  1064       O         60.41700000  *  149.10200000  * -53.19000000  *
  1065       N         59.26800000  *  150.25600000  * -51.67700000  *
  1066       H         59.36500000  *  150.76300000  * -50.80000000  *
  1067       C         58.08300000  *  150.44700000  * -52.50800000  *
  1068       H         58.17300000  *  149.92400000  * -53.45700000  *
  1069       C         56.81900000  *  149.90600000  * -51.78600000  *
  1070       H         55.94300000  *  150.08700000  * -52.41500000  *
  1071       C         56.95000000  *  148.40400000  * -51.54300000  *
  1072       H         57.75300000  *  148.18300000  * -50.83300000  *
  1073       H         56.01300000  *  148.00400000  * -51.15200000  *
  1074       H         57.15800000  *  147.91500000  * -52.48900000  *
  1075       C         56.64700000  *  150.60600000  * -50.43300000  *
  1076       H         57.48200000  *  150.38000000  * -49.77500000  *
  1077       H         56.60500000  *  151.68300000  * -50.57600000  *
  1078       C         55.37000000  *  150.22200000  * -49.68600000  *
  1079       H         55.48900000  *  149.24800000  * -49.22200000  *
  1080       H         55.17000000  *  150.96500000  * -48.91000000  *
  1081       H         54.52900000  *  150.16800000  * -50.38500000  *
  1082       C         57.87200000  *  151.93000000  * -52.81700000  *
  1083       O         58.38200000  *  152.79400000  * -52.10000000  *
  1084       N         57.14900000  *  152.22000000  * -53.89700000  *
  1085       H         56.70500000  *  151.48200000  * -54.43300000  *
  1086       C         56.84100000  *  153.60200000  * -54.22700000  *
  1087       H         57.16800000  *  154.27800000  * -53.43100000  *
  1088       C         57.50400000  *  154.05300000  * -55.54100000  *
  1089       H         57.21800000  *  155.07000000  * -55.80500000  *
  1090       H         58.58200000  *  154.04400000  * -55.38800000  *
  1091       C         57.19300000  *  153.14600000  * -56.70100000  *
  1092       O         56.13500000  *  152.53500000  * -56.76400000  *
  1093       N         58.11500000  *  153.07200000  * -57.64100000  *
  1094       H         57.83300000  *  152.61700000  * -58.48600000  *
  1095       H         58.88600000  *  153.71500000  * -57.62100000  *
  1096       C         55.33100000  *  153.75800000  * -54.32100000  *
  1097       O         54.57600000  *  152.79900000  * -54.11400000  *
  1098       N         54.88500000  *  154.97100000  * -54.62100000  *
  1099       H         55.52100000  *  155.73600000  * -54.79200000  *
  1100       C         53.46400000  *  155.24700000  * -54.72300000  *
  1101       H         52.92700000  *  154.82600000  * -53.87200000  *
  1102       C         53.20900000  *  156.78000000  * -54.75500000  *
  1103       H         52.16900000  *  156.98000000  * -55.02600000  *
  1104       C         53.47800000  *  157.39700000  * -53.41000000  *
  1105       H         54.52100000  *  157.25500000  * -53.13000000  *
[...]
 1005  H   0.83056
 1006  C   1.06477   0.79568   0.73733   0.79840
 1007  O   1.87801   1.40523   1.58048   1.82881
 1008  N   1.52679   1.35115   1.41014   1.31046
 1009  H   0.65536
 1010  H   0.66486
 1011  C   1.08378   0.75903   0.78129   0.81382
 1012  O   1.88465   1.65578   1.31165   1.73610
 1013  N   1.55193   1.50756   1.20391   1.30098
 1014  H   0.66523
 1015  C   1.07239   0.94706   1.09526   0.82054
 1016  H   0.80376
 1017  C   1.07069   1.04604   1.09035   1.16645
 1018  H   0.83055
 1019  H   0.79604
 1020  C   1.05955   0.80849   0.76628   0.75227
 1021  O   1.87689   1.77526   1.39373   1.62675
 1022  N   1.53150   1.30350   1.19414   1.59323
 1023  H   0.66526
 1024  H   0.65360
 1025  C   1.08791   0.78543   0.72001   0.85307
 1026  O   1.87879   1.76740   1.60962   1.37954
 1027  N   1.54121   1.12583   1.66539   1.18333
 1028  H   0.65390
 1029  C   1.06995   0.96911   0.97993   0.97470
 1030  H   0.81082
 1031  C   1.06732   1.06442   0.99781   1.17273
 1032  H   0.83743
 1033  H   0.84809
 1034  C   1.04102   1.01197   0.94609   1.06231
 1035  H   0.85576
 1036  C   1.04922   1.12586   1.11851   1.17072
 1037  H   0.84488
 1038  H   0.84874
 1039  H   0.86575
 1040  C   1.05156   1.14152   1.17192   1.09901
 1041  H   0.84460
 1042  H   0.85745
 1043  H   0.84983
 1044  C   1.07668   0.74972   0.84291   0.75526
 1045  O   1.87188   1.53832   1.79738   1.44617
 1046  N   1.54600   1.55476   1.17230   1.24753
 1047  H   0.64551
 1048  C   1.06510   0.98850   0.82549   1.10053
 1049  H   0.81340
 1050  C   1.06476   1.02257   1.10615   1.12598
 1051  H   0.84682
 1052  H   0.84049
 1053  C   1.04786   0.97013   1.06873   0.96916
 1054  H   0.86615
 1055  C   1.05381   1.12732   1.12669   1.16660
 1056  H   0.84529
 1057  H   0.84892
 1058  H   0.86004
 1059  C   1.05445   1.17434   1.18026   1.04614
 1060  H   0.84035
 1061  H   0.85157
 1062  H   0.84686
 1063  C   1.07530   0.79823   0.74372   0.81697
 1064  O   1.86843   1.83056   1.62582   1.34256
 1065  N   1.54190   1.19082   1.47007   1.29615
 1066  H   0.64322
 1067  C   1.07594   0.88959   1.00581   1.04185
 1068  H   0.80996
 1069  C   1.06433   1.01548   0.99302   1.01962
 1070  H   0.85023
 1071  C   1.05462   1.18106   1.03397   1.17659
 1072  H   0.84325
 1073  H   0.84519
 1074  H   0.85327
 1075  C   1.05401   1.06935   1.11986   1.03175
 1076  H   0.84547
 1077  H   0.86141
 1078  C   1.05256   1.08985   1.15732   1.13185
 1079  H   0.84820
 1080  H   0.87808
 1081  H   0.84671
 1082  C   1.08657   0.74220   0.88827   0.74229
 1083  O   1.88682   1.56845   1.57671   1.55696
 1084  N   1.54299   1.50754   1.14360   1.33799
 1085  H   0.64325
 1086  C   1.06230   0.97227   0.88485   1.03693
 1087  H   0.80543
 1088  C   1.07269   1.18117   1.12892   1.02432
 1089  H   0.80849
 1090  H   0.80466
 1091  C   1.06073   0.76178   0.77069   0.82330
 1092  O   1.88013   1.35531   1.56895   1.83568
 1093  N   1.53412   1.29754   1.49488   1.27223
 1094  H   0.67156
 1095  H   0.66523
 1096  C   1.08299   0.88485   0.75962   0.71356
 1097  O   1.88783   1.65369   1.46789   1.58795
 1098  N   1.54020   1.14547   1.19748   1.67243
 1099  H   0.66364
 1100  C   1.08560   0.83682   1.05846   1.08306
 1101  H   0.80359
 1102  C   1.08431   0.99184   0.86662   0.88964
 1103  H   0.84632
 1104  C   1.05381   1.18348   1.18050   1.05454
 1105  H   0.84187
 1106  H   0.82399
 1107  H   0.82923
 1108  O   1.84876   1.59256   1.82304   1.34556
 1109  H   0.64217
 1110  C   1.07320   0.78896   0.75542   0.82395
 1111  O   1.87786   1.27979   1.68900   1.84877
 1112  N   1.53329   1.19332   1.53449   1.21100
 1113  H   0.66732
 1114  C   1.05709   1.15379   1.13345   0.89298
 1115  H   0.83536
 1116  H   0.83769
 1117  H   0.83536
 1118  H   0.83958
 1119  C   1.10507   0.75498   0.73541   0.91354
 1120  O   1.88314   1.71071   1.59667   1.48269
 1121  N   1.54487   1.42790   1.34578   1.20816
 1122  H   0.65356
 1123  C   1.08075   0.93103   1.08452   0.93150
 1124  H   0.80946
 1125  C   1.07314   1.07909   0.95372   0.98253
 1126  H   0.84400
 1127  C   1.05810   1.18715   1.08400   1.12930
 1128  H   0.84349
 1129  H   0.84839
 1130  H   0.85207
 1131  C   1.05414   1.07580   1.13457   1.01858
 1132  H   0.85360
 1133  H   0.85464
 1134  C   1.04918   1.14381   1.15095   1.09048
 1135  H   0.84992
 1136  H   0.85975
 1137  H   0.84951
 1138  C   1.07226   0.84166   0.73661   0.77770
 1139  O   1.87773   1.89041   1.52101   1.39077
 1140  N   1.54479   1.10290   1.52640   1.33548
 1141  H   0.63239
 1142  C   1.06987   0.84614   1.05349   1.03802
 1143  H   0.81793
 1144  C   1.06011   1.09258   1.04645   1.09620
 1145  H   0.83619
 1146  H   0.84646
 1147  C   1.05107   1.08579   1.04434   1.07806
 1148  H   0.84978
 1149  H   0.84452
 1150  C   1.05937   1.08229   1.05508   1.09796
 1151  H   0.84182
 1152  H   0.83233
 1153  C   1.07893   1.02190   0.99734   1.07425
 1154  H   0.81128
 1155  H   0.83320
 1156  N   1.45916   1.23107   1.22865   1.25596
 1157  H   0.69627
 1158  H   0.69957
 1159  H   0.68619
 1160  C   1.07822   0.77985   0.75046   0.82534
 1161  O   1.88108   1.77254   1.69300   1.29069
 1162  N   1.54483   1.32879   1.42531   1.23094
 1163  H   0.64045
 1164  C   1.07017   0.91847   0.95755   1.02900
 1165  H   0.83187
 1166  C   1.06276   1.10012   1.01932   1.13289
 1167  H   0.83531
 1168  H   0.84471
 1169  C   1.05373   1.07062   0.96109   0.96348
 1170  H   0.85975
 1171  C   1.06223   1.16613   1.13938   1.09227
 1172  H   0.85186
 1173  H   0.84922
 1174  H   0.85273
 1175  C   1.05739   1.18271   1.13696   1.08877
 1176  H   0.85345
 1177  H   0.84830
 1178  H   0.85417
 1179  C   1.08512   0.79140   0.79870   0.75869
 1180  O   1.88078   1.63438   1.59891   1.53911
 1181  N   1.54398   1.36410   1.44103   1.15990
 1182  H   0.64630
 1183  C   1.06738   0.91160   0.92761   1.05081
 1184  H   0.82678
 1185  C   1.05930   1.16672   1.08507   1.15342
 1186  H   0.82308
 1187  H   0.83215
 1188  H   0.82786
 1189  C   1.08819   0.78558   0.78514   0.74693
 1190  O   1.87126   1.83789   1.36237   1.60208
 1191  N   1.54619   1.17501   1.31719   1.49685
 1192  H   0.67199
 1193  C   1.07509   0.88235   1.07878   0.93150
 1194  H   0.81538
 1195  C   1.07936   1.14531   1.17575   1.01623
 1196  H   0.80954
 1197  H   0.83234
 1198  C   1.07078   0.73636   0.73548   0.69236
 1199  O   1.88770   1.76808   1.43475   1.64199
 1200  O   1.87079   1.71957   1.49754   1.78334
 1201  C   1.09005   0.81756   0.79539   0.74774
 1202  O   1.88699   1.28681   1.80226   1.57578
 1203  N   1.56674   1.29225   1.16998   1.53865
 1204  H   0.68040
 1205  C   1.07984   1.02185   0.91747   0.95312
 1206  H   0.83908
 1207  C   1.05567   1.07737   1.20226   0.96310
 1208  H   0.81442
 1209  H   0.81952
 1210  C   1.07475   0.97404   0.97733   0.97002
 1211  C   1.09000   1.04123   1.04135   1.01430
 1212  H   0.83954
 1213  C   1.08863   0.98540   1.06173   1.01054
 1214  H   0.84238
 1215  C   1.08742   1.05977   0.99172   1.03242
 1216  H   0.84786
 1217  C   1.08948   1.03696   1.03614   0.98878
 1218  H   0.83163
 1219  C   1.08724   0.98654   1.06419   1.02397
 1220  H   0.83865
 1221  C   1.08877   0.80278   0.77366   0.76399
 1222  O   1.88523   1.44425   1.55982   1.71449
 1223  N   1.53940   1.41504   1.43687   1.13574
 1224  H   0.68299
 1225  C   1.06845   0.98736   1.06757   0.98188
 1226  H   0.81267
 1227  H   0.80699
 1228  C   1.07958   0.82855   0.77884   0.70608
 1229  O   1.87668   1.84136   1.32597   1.61383
 1230  N   1.55748   1.29726   1.23307   1.44593
 1231  H   0.67299
 1232  C   1.07738   0.89832   1.03260   0.96722
 1233  H   0.83457
 1234  C   1.06794   1.11232   0.95068   1.17578
 1235  H   0.83656
 1236  H   0.83050
 1237  C   1.05172   1.03263   0.96077   1.00893
 1238  H   0.86320
 1239  C   1.05603   1.16774   1.06704   1.16508
 1240  H   0.85799
 1241  H   0.84446
 1242  H   0.85504
 1243  C   1.05564   1.17061   1.18829   1.04769
 1244  H   0.84200
 1245  H   0.84211
 1246  H   0.85834
 1247  C   1.09527   0.85739   0.76487   0.72421
 1248  O   1.88108   1.32571   1.78559   1.59490
 1249  N   1.58229   1.28180   1.23407   1.52152
 1250  H   0.66050
 1251  C   1.06828   0.96384   0.99702   0.95510
 1252  H   0.83634
 1253  C   1.05863   1.14007   1.09759   1.17427
 1254  H   0.84406
 1255  H   0.81077
 1256  H   0.81011
 1257  C   1.07603   0.83428   0.75179   0.78125
 1258  O   1.88387   1.49996   1.60005   1.64962
 1259  N   1.54296   1.31118   1.51243   1.14423
 1260  H   0.67602
 1261  C   1.06247   0.92444   1.14574   1.10582
 1262  H   0.82653
 1263  H   0.82977
 1264  H   0.83907
 1265  H   0.84168
 1266  C   1.10460   0.72501   0.79420   0.87716
 1267  O   1.88383   1.53325   1.36204   1.88327
 1268  N   1.54273   1.48713   1.35112   1.14835
 1269  H   0.67719
 1270  C   1.07285   1.11769   0.96747   0.82222
 1271  H   0.80341
 1272  C   1.05782   1.09117   1.02700   1.14951
 1273  H   0.83518
 1274  H   0.82241
 1275  C   1.06420   0.97686   0.94922   0.96747
 1276  C   1.08262   1.02002   0.99368   1.05810
 1277  H   0.84046
 1278  C   1.08209   1.04743   1.02784   0.99880
 1279  H   0.84588
 1280  C   1.08107   1.00758   1.05590   1.02603
 1281  H   0.85045
 1282  C   1.08049   1.02478   1.00364   1.05524
 1283  H   0.85480
 1284  C   1.08313   1.05822   1.02556   0.99533
 1285  H   0.83964
 1286  C   1.08055   0.76599   0.78596   0.79870
 1287  O   1.88386   1.53926   1.68035   1.53378
 1288  N   1.53678   1.17676   1.34782   1.43191
 1289  H   0.67150
 1290  C   1.05817   1.14203   0.97735   0.99771
 1291  H   0.81373
 1292  H   0.78701
 1293  C   1.07321   0.78211   0.75117   0.80198
 1294  O   1.87204   1.55551   1.39911   1.84072
 1295  N   1.53475   1.40647   1.37180   1.17593
 1296  H   0.64833
 1297  C   1.07483   1.00354   1.20113   0.87824
 1298  H   0.80875
 1299  H   0.79343
 1300  C   1.08128   0.77439   0.74555   0.80732
 1301  O   1.88286   1.52196   1.53286   1.73161
 1302  N   1.56533   1.44471   1.16717   1.26723
 1303  C   1.07055   1.06985   0.86710   1.05581
 1304  H   0.83583
 1305  H   0.83890
 1306  C   1.05732   1.04566   1.13999   1.05920
 1307  H   0.84678
 1308  H   0.80354
 1309  C   1.06104   1.08290   0.98328   1.17208
 1310  H   0.83528
 1311  H   0.81968
 1312  C   1.07344   1.05218   1.00115   0.86773
 1313  H   0.81341
 1314  C   1.08829   0.76348   0.76812   0.82865
 1315  O   1.88393   1.42717   1.43549   1.88341
 1316  N   1.54314   1.40350   1.48391   1.11758
 1317  H   0.64362
 1318  C   1.08219   1.04959   1.11420   0.89126
 1319  H   0.80076
 1320  H   0.78747
 1321  C   1.08833   0.82550   0.73020   0.77830
 1322  O   1.88491   1.70330   1.72961   1.32959
 1323  N   1.55109   1.23215   1.41121   1.34489
 1324  H   0.68808
 1325  C   1.07568   0.86037   1.06408   0.97843
 1326  H   0.82192
 1327  C   1.05962   1.16889   1.07549   0.97646
 1328  H   0.83476
 1329  H   0.83911
 1330  C   1.05817   1.13857   1.07488   1.02377
 1331  H   0.82456
 1332  H   0.87162
 1333  C   1.06376   1.08739   1.09994   0.78144
 1334  H   0.85050
 1335  H   0.81927
 1336  N   1.53281   1.62703   1.28988   1.09338
 1337  H   0.64878
 1338  C   0.97600   0.83627   0.80287   0.79450
 1339  N   1.50147   1.56332   1.25851   1.24811
 1340  H   0.67466
 1341  H   0.62639
 1342  N   1.50407   1.55698   1.35354   1.14120
 1343  H   0.64454
 1344  H   0.63724
 1345  C   1.08278   0.75723   0.77360   0.84407
 1346  O   1.88769   1.48017   1.64665   1.56767
 1347  N   1.54260   1.54559   1.19726   1.23930
 1348  H   0.67299
 1349  C   1.08977   1.00061   1.01012   0.92105
 1350  H   0.80182
 1351  C   1.08629   0.93191   0.92713   0.87801
 1352  H   0.85094
 1353  C   1.05850   1.09765   1.12824   1.20544
 1354  H   0.82399
 1355  H   0.83338
 1356  H   0.83109
 1357  O   1.84299   1.58288   1.64069   1.56921
 1358  H   0.62628
 1359  C   1.07907   0.81347   0.79153   0.76306
 1360  O   1.88747   1.53688   1.79114   1.36937
 1361  N   1.55262   1.32715   1.29595   1.37688
 1362  H   0.65276
 1363  C   1.07404   0.98867   0.92718   0.99333
 1364  H   0.81722
 1365  C   1.05788   1.09556   1.06853   1.08726
 1366  H   0.84088
 1367  H   0.82649
 1368  C   1.06129   0.97219   0.97519   1.05874
 1369  C   1.08283   0.97258   1.07873   0.98988
 1370  H   0.84461
 1371  C   1.08070   1.07834   0.99577   1.02277
 1372  H   0.81337
 1373  C   1.06655   0.82760   0.89524   0.91003
 1374  O   1.84136   1.46795   1.53994   1.69579
 1375  H   0.63545
 1376  C   1.07371   0.99032   1.09251   1.07104
 1377  H   0.84714
 1378  C   1.08184   1.06408   0.99865   0.99371
 1379  H   0.85871
 1380  C   1.08206   0.77635   0.73407   0.82109
 1381  O   1.88477   1.39047   1.55595   1.82931
 1382  N   1.55036   1.20051   1.60179   1.14814
 1383  H   0.66116
 1384  C   1.08717   1.11707   1.03452   0.83745
 1385  H   0.82129
 1386  C   1.08253   0.83216   0.89084   1.00027
 1387  H   0.86863
 1388  C   1.05718   1.09866   1.14107   1.18954
 1389  H   0.83081
 1390  H   0.84588
 1391  H   0.84153
 1392  O   1.84701   1.32392   1.76630   1.66681
 1393  H   0.61656
 1394  C   1.08207   0.82828   0.76380   0.79219
 1395  O   1.88734   1.29185   1.70621   1.67729
 1396  N   1.54293   1.22803   1.27094   1.47581
 1397  H   0.64939
 1398  C   1.07063   0.98409   1.04045   1.07623
 1399  H   0.84399
 1400  H   0.80882
 1401  C   1.07031   0.85078   0.72022   0.75160
 1402  O   1.88500   1.70084   1.45747   1.55933
 1403  N   1.55352   1.14753   1.51372   1.33246
 1404  H   0.68020
 1405  C   1.07072   0.82924   0.98758   1.12931
 1406  H   0.81415
 1407  C   1.05318   1.16383   0.98890   1.05128
 1408  H   0.84012
 1409  H   0.83552
 1410  C   1.05984   1.20559   1.01209   1.13866
 1411  H   0.84349
 1412  H   0.82605
 1413  C   1.06667   0.72272   0.72051   0.72898
 1414  O   1.88755   1.47042   1.82256   1.63771
 1415  O   1.88491   1.51942   1.58571   1.81476
 1416  C   1.08682   0.77108   0.86261   0.75457
 1417  O   1.88731   1.64852   1.65313   1.40979
 1418  N   1.54581   1.31026   1.19189   1.47835
 1419  H   0.65308
 1420  C   1.07215   1.06279   0.88127   1.00772
 1421  H   0.84384
 1422  C   1.05448   1.01860   1.03220   0.97074
 1423  H   0.83596
 1424  C   1.05593   1.17745   1.04885   1.19329
 1425  H   0.84552
 1426  H   0.83585
 1427  H   0.83785
 1428  C   1.05457   1.18134   1.16769   1.06162
 1429  H   0.84064
 1430  H   0.83986
 1431  H   0.85212
 1432  C   1.07563   0.77101   0.73157   0.84203
 1433  O   1.88366   1.36353   1.63740   1.76948
 1434  N   1.53830   1.27323   1.47283   1.21106
 1435  H   0.66904
 1436  C   1.07705   1.00718   1.05466   0.86802
 1437  H   0.82277
 1438  C   1.06065   1.02677   1.01609   0.97675
 1439  H   0.84068
 1440  C   1.05419   1.18423   1.09820   1.12136
 1441  H   0.84078
 1442  H   0.84085
 1443  H   0.85076
 1444  C   1.05734   1.18968   1.16643   1.05246
 1445  H   0.84674
 1446  H   0.83554
 1447  H   0.83874
 1448  C   1.08146   0.80657   0.78642   0.75140
 1449  O   1.88319   1.81144   1.47315   1.46033
 1450  N   1.53602   1.23682   1.43128   1.31659
 1451  H   0.66445
 1452  C   1.07957   0.90442   0.96837   1.14826
 1453  H   0.80534
 1454  C   1.07972   0.93494   0.82440   0.98319
 1455  H   0.86628
 1456  C   1.05747   1.09521   1.13596   1.19618
 1457  H   0.82505
 1458  H   0.82204
 1459  H   0.84133
 1460  O   1.84758   1.47762   1.49389   1.78190
 1461  H   0.64885
 1462  C   1.07071   0.75397   0.82641   0.79813
 1463  O   1.88059   1.50682   1.88250   1.36392
 1464  N   1.53716   1.55049   1.12177   1.29441
 1465  H   0.65727
 1466  C   1.05406   1.16774   0.87315   1.13564
 1467  H   0.83019
 1468  H   0.83716
 1469  H   0.85136
 1470  H   0.82722
 1471  C   1.10850   0.72193   0.77564   0.90303
 1472  O   1.87917   1.50028   1.39726   1.89103
 1473  N   1.54806   1.50771   1.35867   1.13680
 1474  H   0.67054
 1475  C   1.07820   1.08319   1.04089   0.80205
 1476  H   0.80375
 1477  C   1.05901   1.13418   0.99951   1.10164
 1478  H   0.81853
 1479  H   0.82222
 1480  C   1.06595   0.97585   0.99309   1.00564
 1481  C   1.08235   0.99081   1.02465   1.00444
 1482  H   0.83771
 1483  C   1.07638   1.10517   1.04987   1.06628
 1484  H   0.82042
 1485  C   1.07259   0.88656   0.88194   0.87959
 1486  O   1.83868   1.35509   1.61297   1.73274
 1487  H   0.61905
 1488  C   1.07842   0.98842   1.10013   1.09715
 1489  H   0.82113
 1490  C   1.08816   1.07864   0.97874   0.96888
 1491  H   0.83486
 1492  C   1.08085   0.79993   0.76892   0.79199
 1493  O   1.88630   1.81381   1.69955   1.28036
 1494  N   1.53470   1.25583   1.50885   1.18462
 1495  H   0.67091
 1496  C   1.06143   0.92034   1.08961   1.16682
 1497  H   0.83431
 1498  H   0.82968
 1499  H   0.83853
 1500  H   0.82486
 1501  C   1.10804   0.78633   0.88373   0.71617
 1502  O   1.88011   1.43048   1.87063   1.50914
 1503  N   1.55068   1.37512   1.18534   1.44524
 1504  H   0.64439
 1505  C   1.07866   0.96567   0.86324   1.12905
 1506  H   0.81493
 1507  C   1.05976   0.97995   0.99664   1.07645
 1508  H   0.84637
 1509  C   1.05207   1.15828   1.06266   1.17605
 1510  H   0.84451
 1511  H   0.84459
 1512  H   0.84175
 1513  C   1.04783   0.99985   1.12972   1.08492
 1514  H   0.86680
 1515  H   0.85351
 1516  C   1.04903   1.11609   1.12949   1.14941
 1517  H   0.85878
 1518  H   0.85731
 1519  H   0.84117
 1520  C   1.07244   0.85964   0.73796   0.75024
 1521  O   1.87627   1.57604   1.55602   1.67379
 1522  N   1.54217   1.18495   1.41743   1.37464
 1523  H   0.66202
 1524  C   1.07134   0.87898   1.16328   1.10828
 1525  H   0.84317
 1526  H   0.83226
 1527  H   0.83419
 1528  H   0.82766
 1529  C   1.10757   0.84807   0.73311   0.82096
 1530  O   1.88534   1.81635   1.62620   1.36660
 1531  N   1.53783   1.25349   1.40313   1.30538
 1532  H   0.64787
 1533  C   1.05911   0.89156   1.04079   1.02423
 1534  H   0.81942
 1535  C   1.06066   1.03217   1.11474   1.11466
 1536  H   0.82482
 1537  H   0.84735
 1538  C   1.04450   0.99032   0.96313   1.06005
 1539  H   0.87995
 1540  C   1.05454   1.16293   1.06815   1.18065
 1541  H   0.83812
 1542  H   0.84793
 1543  H   0.85393
 1544  C   1.05257   1.12357   1.17250   1.10844
 1545  H   0.85761
 1546  H   0.84722
 1547  H   0.84118
 1548  C   1.07857   0.72950   0.86460   0.77479
 1549  O   1.88183   1.57608   1.45138   1.73538
 1550  N   1.54006   1.57249   1.21269   1.19380
 1551  H   0.66104
 1552  C   1.07181   1.02003   0.93481   0.96143
 1553  H   0.81173
 1554  C   1.05663   1.17053   1.07920   0.99191
 1555  H   0.82425
 1556  H   0.82661
 1557  C   1.05682   1.13006   1.08808   1.03642
 1558  H   0.85325
 1559  H   0.82405
 1560  C   1.06362   1.15812   0.94487   0.90194
 1561  H   0.81624
 1562  H   0.83553
 1563  N   1.52415   1.16145   1.42475   1.39816
 1564  H   0.63972
 1565  C   0.99143   0.79124   0.81235   0.81838
 1566  N   1.51721   1.11641   1.46806   1.48664
 1567  H   0.65578
 1568  H   0.63933
 1569  N   1.50867   1.25121   1.39990   1.41138
 1570  H   0.64199
 1571  H   0.64048
 1572  C   1.08184   0.87201   0.77179   0.74505
 1573  O   1.88748   1.60803   1.59948   1.52782
 1574  N   1.53974   1.17453   1.27147   1.51555
 1575  H   0.65726
 1576  C   1.07436   0.85676   1.08634   1.03873
 1577  H   0.82158
 1578  C   1.06146   1.16518   1.09811   0.98387
 1579  H   0.84201
 1580  H   0.83752
 1581  C   1.04763   1.08128   0.96034   0.94835
 1582  H   0.86912
 1583  C   1.05592   1.17149   1.16284   1.07756
 1584  H   0.85471
 1585  H   0.86139
 1586  H   0.84662
 1587  C   1.05677   1.15793   1.09226   1.15813
 1588  H   0.85061
 1589  H   0.86096
 1590  H   0.84603
 1591  C   1.08295   0.71478   0.76176   0.70279
 1592  O   1.88401   1.46758   1.86961   1.62343
 1593  O   1.88764   1.54709   1.59371   1.80294

 **********************
 *                    *
 * JOB ENDED NORMALLY *
 *                    *
 **********************



 TOTAL JOB TIME:          2979.45 SECONDS

 == MOPAC DONE ==
