 *******************************************************************************
 **                                                                           **
 **                              MOPAC v23.2.2                                **
 **                                                                           **
 *******************************************************************************
 **          Digital Object Identifier (DOI): 10.5281/zenodo.6511958          **
 **    Visit the DOI location for information on how to cite this program.    **
 *******************************************************************************

                              PM7 CALCULATION RESULTS

 *******************************************************************************
 *  CALCULATION DONE: (MAX THREADS = 24)             Thu Jan 22 23:44:53 2026  *
 *  PM7        - The PM7 Hamiltonian to be used
 *
 *
 *
 *                 CHARGE ON SYSTEM = +2
 *
 *
 *
 *  EPS=78.4   - USE ANDREAS KLAMT'S COSMO IMPLICIT SOLVATION MODEL
 *  XYZ        - CARTESIAN COORDINATE SYSTEM TO BE USED
 *  1SCF       - DO 1 SCF AND THEN STOP 
 *  T=         - A TIME OF 172800.0 SECONDS REQUESTED
 *  DUMP=N     - RESTART FILE WRITTEN EVERY 7200.0 SECONDS REQUESTED
 *******************************************************************************
PM7 1SCF XYZ CHARGE=2 EPS=78.4


   ATOM   CHEMICAL          X               Y               Z
  NUMBER   SYMBOL      (ANGSTROMS)     (ANGSTROMS)     (ANGSTROMS)

     1       H         71.69100000  *  165.23700000  * -45.36000000  *
     2       C         70.72700000  *  165.64400000  * -45.02500000  *
     3       O         70.67100000  *  166.69300000  * -44.40000000  *
     4       N         69.64800000  *  164.94600000  * -45.35400000  *
     5       H         69.74300000  *  164.08600000  * -45.86500000  *
     6       C         68.31800000  *  165.37700000  * -44.95100000  *
     7       H         68.30400000  *  166.44500000  * -44.75000000  *
     8       C         67.27900000  *  165.08100000  * -46.05800000  *
     9       H         67.27200000  *  164.02200000  * -46.29800000  *
    10       C         65.89200000  *  165.46600000  * -45.59200000  *
    11       H         65.46400000  *  166.22900000  * -46.24500000  *
    12       H         65.23700000  *  164.60600000  * -45.62700000  *
    13       H         65.87600000  *  165.89500000  * -44.58400000  *
    14       C         67.63700000  *  165.85600000  * -47.31700000  *
    15       H         68.59400000  *  165.52900000  * -47.70800000  *
    16       H         66.87900000  *  165.66900000  * -48.07700000  *
    17       H         67.68800000  *  166.92100000  * -47.10100000  *
    18       C         67.91500000  *  164.66400000  * -43.65700000  *
    19       O         67.55300000  *  165.30600000  * -42.67600000  *
    20       N         67.98400000  *  163.33800000  * -43.65800000  *
    21       H         68.28400000  *  162.85200000  * -44.48600000  *
    22       C         67.62300000  *  162.54400000  * -42.48700000  *
    23       H         67.90600000  *  163.07600000  * -41.58100000  *
    24       C         66.12800000  *  162.23500000  * -42.45900000  *
    25       H         65.92600000  *  161.47400000  * -43.20900000  *
    26       H         65.88500000  *  161.80700000  * -41.48800000  *
    27       C         65.21300000  *  163.39800000  * -42.74000000  *
    28       H         65.33100000  *  164.15700000  * -41.96400000  *
    29       H         65.45900000  *  163.81400000  * -43.69700000  *
    30       C         63.76600000  *  162.97200000  * -42.82400000  *
    31       O         63.44700000  *  162.11400000  * -43.67900000  *
    32       O         62.94800000  *  163.49400000  * -42.03400000  *
    33       C         68.34700000  *  161.22200000  * -42.57700000  *
    34       O         68.73000000  *  160.78800000  * -43.66100000  *
    35       N         68.52400000  *  160.57500000  * -41.43500000  *
    36       H         68.03000000  *  160.89100000  * -40.60600000  *
    37       C         69.17300000  *  159.28200000  * -41.42100000  *
    38       H         69.95100000  *  159.22100000  * -42.17800000  *
    39       C         69.75600000  *  159.01000000  * -40.03200000  *
    40       H         70.21900000  *  159.94300000  * -39.71800000  *
    41       H         68.96300000  *  158.79100000  * -39.31600000  *
    42       C         70.79800000  *  157.89600000  * -39.98300000  *
    43       H         70.31100000  *  156.94100000  * -40.17400000  *
    44       H         71.53800000  *  158.07300000  * -40.76900000  *
    45       C         71.50100000  *  157.83200000  * -38.61800000  *
    46       H         70.74900000  *  157.59000000  * -37.86000000  *
    47       H         72.23100000  *  157.01800000  * -38.63800000  *
    48       C         72.18600000  *  159.16200000  * -38.26900000  *
    49       H         72.83200000  *  159.42500000  * -39.10900000  *
    50       H         71.41200000  *  159.93100000  * -38.15600000  *
    51       N         73.00000000  *  159.10500000  * -37.02500000  *
    52       H         73.70000000  *  158.37000000  * -37.07400000  *
    53       H         73.43800000  *  159.98800000  * -36.79300000  *
    54       H         72.39100000  *  158.85400000  * -36.25100000  *
    55       C         68.06200000  *  158.28700000  * -41.74800000  *
    56       O         67.16300000  *  158.08100000  * -40.94600000  *
    57       N         68.04600000  *  157.72900000  * -42.96400000  *
    58       H         68.85100000  *  157.88100000  * -43.55200000  *
    59       C         67.03400000  *  156.74500000  * -43.40800000  *
    60       H         66.05800000  *  157.23200000  * -43.42200000  *
    61       C         67.33600000  *  156.22600000  * -44.83500000  *
    62       H         68.41300000  *  156.12100000  * -44.94700000  *
    63       C         66.69500000  *  154.86100000  * -45.13100000  *
    64       H         65.61900000  *  154.90800000  * -44.95700000  *
    65       H         66.87600000  *  154.58800000  * -46.16200000  *
    66       H         67.13300000  *  154.07500000  * -44.51600000  *
    67       C         66.83200000  *  157.25400000  * -45.86000000  *
    68       H         65.74100000  *  157.24300000  * -45.88700000  *
    69       H         67.14300000  *  158.23300000  * -45.51400000  *
    70       C         67.37300000  *  157.04600000  * -47.28300000  *
    71       H         66.95800000  *  156.14400000  * -47.72700000  *
    72       H         67.09200000  *  157.89200000  * -47.90700000  *
    73       H         68.45700000  *  156.97000000  * -47.26600000  *
    74       C         66.92500000  *  155.59000000  * -42.41500000  *
    75       O         65.82600000  *  155.22800000  * -41.98900000  *
    76       N         68.06900000  *  155.00300000  * -42.06500000  *
    77       H         68.94400000  *  155.35700000  * -42.43300000  *
    78       C         68.10900000  *  153.82700000  * -41.21600000  *
    79       H         67.64400000  *  154.06400000  * -40.25800000  *
    80       H         67.54200000  *  153.02500000  * -41.69000000  *
    81       C         69.51600000  *  153.32200000  * -40.95100000  *
    82       O         70.51900000  *  153.81800000  * -41.47300000  *
    83       N         69.55700000  *  152.30100000  * -40.11100000  *
    84       H         68.67700000  *  151.93400000  * -39.77300000  *
    85       C         70.76800000  *  151.72100000  * -39.55600000  *
    86       H         71.60900000  *  152.39500000  * -39.72700000  *
    87       C         70.57400000  *  151.57400000  * -38.03800000  *
    88       H         69.73600000  *  150.90400000  * -37.84000000  *
    89       H         71.48100000  *  151.14900000  * -37.63000000  *
    90       C         70.33400000  *  152.92600000  * -37.34200000  *
    91       H         71.16600000  *  153.59300000  * -37.58300000  *
    92       H         69.42200000  *  153.38500000  * -37.73100000  *
    93       C         70.19800000  *  152.78700000  * -35.81800000  *
    94       O         69.31300000  *  152.03700000  * -35.34500000  *
    95       O         70.94200000  *  153.47200000  * -35.07900000  *
    96       C         71.04800000  *  150.40300000  * -40.29200000  *
    97       O         70.39400000  *  149.38500000  * -40.05400000  *
    98       N         71.91800000  *  150.47200000  * -41.30400000  *
    99       H         72.48400000  *  151.30500000  * -41.40600000  *
   100       C         72.00300000  *  149.48100000  * -42.38000000  *
   101       H         70.99300000  *  149.18600000  * -42.66900000  *
   102       H         72.46800000  *  149.95800000  * -43.24200000  *
   103       C         72.79600000  *  148.21100000  * -42.05700000  *
   104       O         73.29100000  *  148.00200000  * -40.95100000  *
   105       N         72.95500000  *  147.36200000  * -43.07600000  *
   106       H         72.49900000  *  147.57200000  * -43.95400000  *
   107       C         73.75900000  *  146.12500000  * -43.03500000  *
   108       H         73.42700000  *  145.51800000  * -42.19200000  *
   109       C         73.56600000  *  145.30400000  * -44.32100000  *
   110       H         74.33300000  *  144.53100000  * -44.38500000  *
   111       C         72.19900000  *  144.63100000  * -44.33400000  *
   112       H         71.40600000  *  145.37900000  * -44.36200000  *
   113       H         72.12500000  *  143.98500000  * -45.20800000  *
   114       H         72.10400000  *  144.00900000  * -43.44500000  *
   115       O         73.66200000  *  146.15200000  * -45.44100000  *
   116       H         73.25200000  *  145.68200000  * -46.20200000  *
   117       C         75.25400000  *  146.36400000  * -42.84200000  *
   118       O         75.86900000  *  145.61300000  * -42.09400000  *
   119       N         75.82600000  *  147.39100000  * -43.48400000  *
   120       H         75.23600000  *  147.89100000  * -44.12900000  *
   121       C         77.28000000  *  147.65600000  * -43.53600000  *
   122       H         77.77500000  *  147.07800000  * -42.75600000  *
   123       C         77.83800000  *  147.18200000  * -44.89300000  *
   124       H         77.49500000  *  147.87000000  * -45.66600000  *
   125       H         78.92800000  *  147.23900000  * -44.86700000  *
   126       C         77.46500000  *  145.76800000  * -45.29200000  *
   127       C         77.74400000  *  144.70000000  * -44.42000000  *
   128       H         78.22900000  *  144.88300000  * -43.47000000  *
   129       C         77.36700000  *  143.39400000  * -44.77000000  *
   130       H         77.56100000  *  142.58200000  * -44.08900000  *
   131       C         76.74100000  *  143.14300000  * -46.00800000  *
   132       O         76.45400000  *  141.86600000  * -46.36400000  *
   133       H         77.06500000  *  141.27100000  * -45.90000000  *
   134       C         76.45900000  *  144.21300000  * -46.88200000  *
   135       H         75.96300000  *  144.02900000  * -47.81900000  *
   136       C         76.82800000  *  145.52300000  * -46.52400000  *
   137       H         76.61700000  *  146.34100000  * -47.19800000  *
   138       C         77.67000000  *  149.12700000  * -43.29100000  *
   139       O         78.78300000  *  149.53400000  * -43.62400000  *
   140       N         76.77000000  *  149.94100000  * -42.73100000  *
   141       H         75.88500000  *  149.55900000  * -42.42900000  *
   142       C         76.99400000  *  151.36900000  * -42.48500000  *
   143       H         77.57800000  *  151.49300000  * -41.57400000  *
   144       H         77.57000000  *  151.78000000  * -43.30400000  *
   145       C         75.69300000  *  152.16100000  * -42.33800000  *
   146       O         74.63100000  *  151.56700000  * -42.12700000  *
   147       N         75.75500000  *  153.49500000  * -42.44900000  *
   148       H         76.58800000  *  153.89400000  * -42.85900000  *
   149       C         74.59200000  *  154.32600000  * -42.21200000  *
   150       H         73.82600000  *  153.78000000  * -41.65800000  *
   151       C         74.95900000  *  155.54800000  * -41.37000000  *
   152       H         75.70700000  *  156.13900000  * -41.89300000  *
   153       C         73.73100000  *  156.40900000  * -41.13300000  *
   154       H         72.94300000  *  155.80300000  * -40.68200000  *
   155       H         73.98600000  *  157.21200000  * -40.45000000  *
   156       H         73.36800000  *  156.84900000  * -42.06500000  *
   157       C         75.54500000  *  155.09600000  * -40.05300000  *
   158       H         76.46000000  *  154.52800000  * -40.19800000  *
   159       H         75.77700000  *  155.95300000  * -39.42300000  *
   160       H         74.80500000  *  154.48400000  * -39.53200000  *
   161       C         74.01900000  *  154.79200000  * -43.53700000  *
   162       O         74.76100000  *  155.18400000  * -44.43700000  *
   163       N         72.69700000  *  154.66100000  * -43.66500000  *
   164       H         72.17200000  *  154.33600000  * -42.86000000  *
   165       C         71.90800000  *  155.09800000  * -44.82000000  *
   166       H         72.55700000  *  155.14300000  * -45.69300000  *
   167       C         70.74900000  *  154.12200000  * -45.12400000  *
   168       H         69.91600000  *  154.33000000  * -44.45300000  *
   169       C         70.27000000  *  154.31900000  * -46.56700000  *
   170       H         71.06300000  *  154.05600000  * -47.26800000  *
   171       H         69.40400000  *  153.68500000  * -46.75700000  *
   172       H         69.98700000  *  155.35600000  * -46.73300000  *
   173       C         71.11000000  *  152.64500000  * -44.93100000  *
   174       H         71.33300000  *  152.44300000  * -43.88300000  *
   175       H         70.25300000  *  152.03200000  * -45.20800000  *
   176       H         71.96800000  *  152.38200000  * -45.54600000  *
   177       C         71.34800000  *  156.49000000  * -44.53600000  *
   178       O         70.62000000  *  156.65000000  * -43.55200000  *
   179       N         71.62500000  *  157.49000000  * -45.37400000  *
   180       H         72.23900000  *  157.32200000  * -46.16900000  *
   181       C         71.01800000  *  158.79600000  * -45.21900000  *
   182       H         70.37900000  *  158.84300000  * -44.33800000  *
   183       C         72.10000000  *  159.86100000  * -45.06900000  *
   184       H         72.79900000  *  159.78100000  * -45.90500000  *
   185       H         71.63400000  *  160.84400000  * -45.14300000  *
   186       C         72.87100000  *  159.84300000  * -43.76800000  *
   187       C         72.34700000  *  160.43100000  * -42.61900000  *
   188       H         71.37700000  *  160.90600000  * -42.66800000  *
   189       C         73.06400000  *  160.45200000  * -41.42500000  *
   190       H         72.63300000  *  160.94600000  * -40.56800000  *
   191       C         74.33000000  *  159.87400000  * -41.37100000  *
   192       O         75.04700000  *  159.90100000  * -40.18700000  *
   193       H         74.69700000  *  160.54100000  * -39.56800000  *
   194       C         74.87500000  *  159.27800000  * -42.50300000  *
   195       H         75.78500000  *  158.71900000  * -42.41900000  *
   196       C         74.14000000  *  159.26700000  * -43.69600000  *
   197       H         74.51800000  *  158.73300000  * -44.56500000  *
   198       C         70.16700000  *  159.17400000  * -46.42900000  *
   199       O         70.41800000  *  158.72400000  * -47.55600000  *
   200       N         69.03100000  *  159.83600000  * -46.21300000  *
   201       H         68.84400000  *  160.14300000  * -45.26500000  *
   202       C         68.29500000  *  160.51200000  * -47.28200000  *
   203       H         68.28700000  *  159.91000000  * -48.19300000  *
   204       C         66.84900000  *  160.83600000  * -46.85100000  *
   205       H         66.33100000  *  159.91500000  * -46.59800000  *
   206       H         66.86500000  *  161.47100000  * -45.96300000  *
   207       C         66.04200000  *  161.52900000  * -47.96100000  *
   208       H         66.51900000  *  162.47100000  * -48.23400000  *
   209       H         66.01300000  *  160.88100000  * -48.83800000  *
   210       C         64.60800000  *  161.81100000  * -47.48400000  *
   211       H         64.14800000  *  160.87800000  * -47.15300000  *
   212       H         64.64400000  *  162.50100000  * -46.64000000  *
   213       C         63.76800000  *  162.41700000  * -48.61600000  *
   214       H         64.29300000  *  163.29300000  * -49.01200000  *
   215       H         63.69000000  *  161.67800000  * -49.42100000  *
   216       N         62.41200000  *  162.81100000  * -48.14900000  *
   217       H         62.46100000  *  163.51500000  * -47.42700000  *
   218       H         61.86300000  *  163.19900000  * -48.90500000  *
   219       H         61.90300000  *  162.02200000  * -47.77300000  *
   220       C         69.10000000  *  161.76700000  * -47.51000000  *
   221       O         69.33000000  *  162.50100000  * -46.55200000  *
   222       N         69.55500000  *  162.00600000  * -48.72500000  *
   223       H         69.34400000  *  161.34200000  * -49.46700000  *
   224       C         70.34900000  *  163.18200000  * -49.01700000  *
   225       H         70.22500000  *  163.93500000  * -48.24000000  *
   226       C         71.81400000  *  162.79200000  * -49.07000000  *
   227       H         71.97800000  *  162.06700000  * -49.86400000  *
   228       H         72.42900000  *  163.67700000  * -49.23900000  *
   229       H         72.10500000  *  162.33200000  * -48.12600000  *
   230       C         69.94400000  *  163.83800000  * -50.32200000  *
   231       O         69.22100000  *  163.25100000  * -51.12800000  *
   232       N         70.40700000  *  165.06400000  * -50.52400000  *
   233       H         70.93200000  *  165.53000000  * -49.79600000  *
   234       C         70.10800000  *  165.77900000  * -51.74600000  *
   235       H         69.54100000  *  165.15900000  * -52.44400000  *
   236       H         69.52200000  *  166.69100000  * -51.53000000  *
   237       H         71.05900000  *  166.04700000  * -52.23900000  *
   238       H         68.08600000  *  164.80700000  * -56.55000000  *
   239       C         68.21200000  *  164.39600000  * -55.53600000  *
   240       O         69.28600000  *  164.50800000  * -54.94200000  *
   241       N         67.13500000  *  163.82300000  * -55.01100000  *
   242       H         66.34000000  *  163.66800000  * -55.61500000  *
   243       C         67.13600000  *  163.21200000  * -53.68800000  *
   244       H         67.86300000  *  163.70700000  * -53.05000000  *
   245       C         65.75500000  *  163.32300000  * -53.02900000  *
   246       H         64.97700000  *  163.06900000  * -53.75000000  *
   247       C         65.64800000  *  162.36600000  * -51.85200000  *
   248       H         66.47200000  *  162.51800000  * -51.15200000  *
   249       H         64.69700000  *  162.53800000  * -51.34700000  *
   250       H         65.65200000  *  161.33900000  * -52.20000000  *
   251       C         65.54000000  *  164.75000000  * -52.56600000  *
   252       H         65.62600000  *  165.42400000  * -53.41600000  *
   253       H         64.53500000  *  164.85100000  * -52.15900000  *
   254       H         66.28400000  *  165.00300000  * -51.81000000  *
   255       C         67.52600000  *  161.76000000  * -53.84700000  *
   256       O         66.97900000  *  161.02800000  * -54.68200000  *
   257       N         68.49600000  *  161.34900000  * -53.04800000  *
   258       H         68.91100000  *  161.99700000  * -52.39100000  *
   259       C         69.01100000  *  159.99200000  * -53.10200000  *
   260       H         68.34600000  *  159.34100000  * -53.67900000  *
   261       C         70.37400000  *  159.97400000  * -53.81600000  *
   262       H         70.77500000  *  158.96500000  * -53.87500000  *
   263       C         70.21400000  *  160.50700000  * -55.21300000  *
   264       H         69.95700000  *  161.56600000  * -55.19000000  *
   265       H         71.15100000  *  160.39100000  * -55.75600000  *
   266       H         69.44200000  *  159.95000000  * -55.73600000  *
   267       C         71.37900000  *  160.85000000  * -53.05700000  *
   268       H         71.56500000  *  160.44500000  * -52.06400000  *
   269       H         72.31500000  *  160.84900000  * -53.61300000  *
   270       H         71.03600000  *  161.88400000  * -52.98400000  *
   271       C         69.19200000  *  159.37200000  * -51.72900000  *
   272       O         69.02000000  *  160.03600000  * -50.68600000  *
   273       N         69.38400000  *  158.05900000  * -51.70500000  *
   274       H         69.46300000  *  157.56600000  * -52.59000000  *
   275       C         69.76100000  *  157.32400000  * -50.51400000  *
   276       H         69.47900000  *  157.88500000  * -49.62400000  *
   277       C         69.00900000  *  156.00200000  * -50.48200000  *
   278       H         69.24600000  *  155.43200000  * -51.37700000  *
   279       H         69.29800000  *  155.43100000  * -49.59900000  *
   280       H         67.93900000  *  156.20200000  * -50.44700000  *
   281       C         71.27800000  *  157.14400000  * -50.54000000  *
   282       O         71.81300000  *  156.46700000  * -51.42500000  *
   283       N         71.97000000  *  157.79100000  * -49.60300000  *
   284       H         71.44500000  *  158.28300000  * -48.88900000  *
   285       C         73.41300000  *  157.73400000  * -49.53500000  *
   286       H         73.80300000  *  157.43200000  * -50.50200000  *
   287       C         73.96100000  *  159.11400000  * -49.18200000  *
   288       H         73.49200000  *  159.84000000  * -49.85100000  *
   289       H         73.62800000  *  159.35800000  * -48.16900000  *
   290       C         75.47300000  *  159.31600000  * -49.26600000  *
   291       H         75.96900000  *  158.63700000  * -48.57100000  *
   292       C         75.94900000  *  159.02000000  * -50.68400000  *
   293       H         75.44100000  *  159.71800000  * -51.34800000  *
   294       H         77.02400000  *  159.18800000  * -50.76300000  *
   295       H         75.74700000  *  157.98700000  * -50.96800000  *
   296       C         75.80400000  *  160.74000000  * -48.87900000  *
   297       H         75.43700000  *  160.94600000  * -47.87600000  *
   298       H         76.88200000  *  160.87900000  * -48.92200000  *
   299       H         75.32000000  *  161.42900000  * -49.57600000  *
   300       C         73.82100000  *  156.71600000  * -48.48500000  *
   301       O         73.39600000  *  156.78100000  * -47.33400000  *
   302       N         74.65900000  *  155.76200000  * -48.88100000  *
   303       H         74.90500000  *  155.74100000  * -49.86900000  *
   304       C         75.12700000  *  154.64400000  * -48.05400000  *
   305       H         74.60600000  *  154.64400000  * -47.09500000  *
   306       C         74.79900000  *  153.34100000  * -48.81900000  *
   307       H         74.18600000  *  153.57700000  * -49.69200000  *
   308       H         75.71500000  *  152.88600000  * -49.19400000  *
   309       C         74.02600000  *  152.28700000  * -48.02500000  *
   310       H         73.18800000  *  152.75700000  * -47.51000000  *
   311       H         73.61500000  *  151.58800000  * -48.75300000  *
   312       C         74.91200000  *  151.52700000  * -47.02200000  *
   313       H         75.90300000  *  151.37000000  * -47.44600000  *
   314       H         75.02600000  *  152.13800000  * -46.12200000  *
   315       C         74.30700000  *  150.16300000  * -46.64300000  *
   316       H         74.86100000  *  149.76800000  * -45.78500000  *
   317       H         73.27500000  *  150.32900000  * -46.31700000  *
   318       N         74.35200000  *  149.18800000  * -47.77700000  *
   319       H         75.29600000  *  148.89200000  * -47.99700000  *
   320       H         73.79600000  *  148.34000000  * -47.59200000  *
   321       H         73.94400000  *  149.57300000  * -48.62000000  *
   322       C         76.62300000  *  154.82400000  * -47.79100000  *
   323       O         77.41700000  *  154.62100000  * -48.70200000  *
   324       N         77.01700000  *  155.22600000  * -46.58100000  *
   325       H         76.29800000  *  155.26800000  * -45.86500000  *
   326       C         78.42200000  *  155.28900000  * -46.15900000  *
   327       H         79.06600000  *  155.59300000  * -46.98900000  *
   328       C         78.56700000  *  156.26000000  * -44.97900000  *
   329       H         78.02700000  *  155.87500000  * -44.10900000  *
   330       H         79.62500000  *  156.33900000  * -44.73000000  *
   331       C         78.01500000  *  157.64300000  * -45.34000000  *
   332       H         78.45100000  *  157.95800000  * -46.27300000  *
   333       H         76.93600000  *  157.57500000  * -45.50000000  *
   334       C         78.25100000  *  158.72500000  * -44.27900000  *
   335       H         77.97800000  *  159.68000000  * -44.73200000  *
   336       H         77.56000000  *  158.53300000  * -43.46900000  *
   337       C         79.67700000  *  158.85000000  * -43.70900000  *
   338       H         80.38400000  *  158.36300000  * -44.39700000  *
   339       H         79.95000000  *  159.91100000  * -43.68600000  *
   340       N         79.78800000  *  158.26900000  * -42.33500000  *
   341       H         79.63700000  *  157.26100000  * -42.37000000  *
   342       H         80.69600000  *  158.42600000  * -41.93200000  *
   343       H         79.10400000  *  158.64600000  * -41.70100000  *
   344       C         78.82300000  *  153.89100000  * -45.72900000  *
   345       O         78.09100000  *  153.31500000  * -44.93700000  *
   346       N         79.90700000  *  153.32000000  * -46.24700000  *
   347       H         80.40500000  *  153.76400000  * -47.01000000  *
   348       C         80.34300000  *  152.02200000  * -45.76800000  *
   349       H         79.49500000  *  151.49800000  * -45.35900000  *
   350       C         80.94400000  *  151.18600000  * -46.89500000  *
   351       H         81.78600000  *  151.78200000  * -47.16900000  *
   352       C         81.42400000  *  149.85200000  * -46.34500000  *
   353       H         80.65600000  *  149.35200000  * -45.75200000  *
   354       H         81.67900000  *  149.19900000  * -47.17900000  *
   355       H         82.34500000  *  149.95700000  * -45.76100000  *
   356       C         79.89700000  *  150.97600000  * -47.99700000  *
   357       H         79.60200000  *  151.87000000  * -48.50000000  *
   358       H         80.28300000  *  150.30500000  * -48.75000000  *
   359       C         78.59100000  *  150.36100000  * -47.52600000  *
   360       H         78.17700000  *  150.90100000  * -46.69000000  *
   361       H         77.89400000  *  150.33700000  * -48.36300000  *
   362       H         78.77100000  *  149.33300000  * -47.20900000  *
   363       C         81.33300000  *  152.07100000  * -44.61400000  *
   364       O         82.16700000  *  152.98000000  * -44.51900000  *
   365       N         81.21100000  *  151.07100000  * -43.74300000  *
   366       H         80.50300000  *  150.36100000  * -43.92800000  *
   367       C         82.04400000  *  150.90200000  * -42.55200000  *
   368       H         81.47500000  *  151.18100000  * -41.66300000  *
   369       H         82.35800000  *  149.86100000  * -42.45900000  *
   370       H         82.94700000  *  151.51400000  * -42.62000000  *
   371       H         81.25700000  *  144.04600000  * -57.89900000  *
   372       C         80.50000000  *  144.84100000  * -57.88800000  *
   373       O         79.71500000  *  144.99000000  * -58.82400000  *
   374       N         80.49900000  *  145.60300000  * -56.79700000  *
   375       H         81.28000000  *  145.52500000  * -56.16600000  *
   376       C         79.57000000  *  146.70600000  * -56.61200000  *
   377       H         78.57500000  *  146.34400000  * -56.42300000  *
   378       C         80.00500000  *  147.61000000  * -55.44200000  *
   379       H         80.89800000  *  148.18000000  * -55.68500000  *
   380       C         78.90600000  *  148.60800000  * -55.12500000  *
   381       H         77.92000000  *  148.14100000  * -55.17600000  *
   382       H         79.04500000  *  148.98700000  * -54.11600000  *
   383       H         78.93800000  *  149.43600000  * -55.83300000  *
   384       C         80.32100000  *  146.76200000  * -54.20900000  *
   385       H         81.19200000  *  146.13400000  * -54.40600000  *
   386       H         80.59400000  *  147.42200000  * -53.38900000  *
   387       C         79.18400000  *  145.87900000  * -53.76500000  *
   388       H         78.77800000  *  145.31100000  * -54.59400000  *
   389       H         79.50900000  *  145.12200000  * -53.06500000  *
   390       H         78.38800000  *  146.48300000  * -53.33500000  *
   391       C         79.54300000  *  147.54500000  * -57.87900000  *
   392       O         78.48200000  *  147.77900000  * -58.45100000  *
   393       N         80.72300000  *  147.98900000  * -58.30900000  *
   394       H         81.55800000  *  147.70100000  * -57.81200000  *
   395       C         80.85900000  *  148.80400000  * -59.51100000  *
   396       H         80.33900000  *  149.74600000  * -59.38600000  *
   397       H         81.92800000  *  148.98500000  * -59.72900000  *
   398       H         80.37800000  *  148.32200000  * -60.38100000  *
   399       H         78.96400000  *  146.08700000  * -61.65600000  *
   400       C         77.87300000  *  146.08700000  * -61.51600000  *
   401       O         77.11500000  *  145.89500000  * -62.46400000  *
   402       N         77.44600000  *  146.31800000  * -60.28000000  *
   403       H         78.13400000  *  146.42500000  * -59.54900000  *
   404       C         76.02800000  *  146.35200000  * -59.94500000  *
   405       H         75.53300000  *  145.47600000  * -60.35900000  *
   406       C         75.84100000  *  146.37400000  * -58.43100000  *
   407       H         76.20500000  *  147.30400000  * -58.01800000  *
   408       H         74.76300000  *  146.35700000  * -58.24200000  *
   409       C         76.47200000  *  145.22200000  * -57.65900000  *
   410       H         77.55000000  *  145.23900000  * -57.74900000  *
   411       C         76.08000000  *  145.34100000  * -56.19200000  *
   412       H         74.99900000  *  145.23000000  * -56.07700000  *
   413       H         76.57300000  *  144.55300000  * -55.62900000  *
   414       H         76.38500000  *  146.30900000  * -55.80100000  *
   415       C         75.99600000  *  143.89000000  * -58.23600000  *
   416       H         76.41500000  *  143.73000000  * -59.22900000  *
   417       H         76.32800000  *  143.07800000  * -57.59100000  *
   418       H         74.90500000  *  143.87400000  * -58.30500000  *
   419       C         75.32200000  *  147.55900000  * -60.54800000  *
   420       O         74.09500000  *  147.56800000  * -60.66200000  *
   421       N         76.08400000  *  148.63100000  * -60.82900000  *
   422       H         77.08200000  *  148.53500000  * -60.67700000  *
   423       C         75.60100000  *  149.83300000  * -61.53400000  *
   424       H         74.83700000  *  150.33500000  * -60.94100000  *
   425       H         76.43800000  *  150.53300000  * -61.75900000  *
   426       H         75.13800000  *  149.54900000  * -62.49200000  *
   427       H         62.79000000  *  145.77200000  * -59.27600000  *
   428       C         63.71000000  *  145.72000000  * -58.67500000  *
   429       O         63.77900000  *  145.02200000  * -57.66400000  *
   430       N         64.72400000  *  146.45200000  * -59.11400000  *
   431       H         64.63800000  *  147.05100000  * -59.92700000  *
   432       C         65.97100000  *  146.53500000  * -58.38100000  *
   433       H         65.88400000  *  146.09200000  * -57.38600000  *
   434       C         67.11600000  *  145.87700000  * -59.11400000  *
   435       H         67.33600000  *  146.42600000  * -60.03000000  *
   436       C         68.35100000  *  145.87800000  * -58.21400000  *
   437       H         68.14700000  *  145.31400000  * -57.31800000  *
   438       H         69.21000000  *  145.44500000  * -58.72400000  *
   439       H         68.64100000  *  146.89000000  * -57.94500000  *
   440       C         66.72800000  *  144.44400000  * -59.47800000  *
   441       H         66.54900000  *  143.87300000  * -58.56400000  *
   442       H         65.81500000  *  144.42400000  * -60.06800000  *
   443       C         67.77400000  *  143.72700000  * -60.29600000  *
   444       H         68.68300000  *  143.57700000  * -59.72200000  *
   445       H         67.37700000  *  142.75300000  * -60.59800000  *
   446       H         68.02300000  *  144.31300000  * -61.18000000  *
   447       C         66.29500000  *  148.01000000  * -58.22000000  *
   448       O         66.21200000  *  148.78000000  * -59.18400000  *
   449       N         66.54900000  *  148.43900000  * -56.98200000  *
   450       H         66.61800000  *  147.75600000  * -56.23100000  *
   451       C         66.89000000  *  149.83400000  * -56.68500000  *
   452       H         66.07400000  *  150.48000000  * -57.01000000  *
   453       C         67.10000000  *  150.03400000  * -55.17900000  *
   454       H         67.89100000  *  149.36600000  * -54.83400000  *
   455       C         67.49300000  *  151.47200000  * -54.83300000  *
   456       H         66.67100000  *  152.15700000  * -55.04600000  *
   457       H         67.73800000  *  151.51300000  * -53.77500000  *
   458       H         68.36800000  *  151.78400000  * -55.39600000  *
   459       C         65.81900000  *  149.72200000  * -54.40200000  *
   460       H         65.53600000  *  148.68000000  * -54.52100000  *
   461       H         66.00400000  *  149.90300000  * -53.35000000  *
   462       H         65.00600000  *  150.35600000  * -54.74800000  *
   463       C         68.15000000  *  150.21100000  * -57.45800000  *
   464       O         69.17700000  *  149.53800000  * -57.34000000  *
   465       N         68.08000000  *  151.28300000  * -58.25100000  *
   466       H         67.22500000  *  151.80400000  * -58.24500000  *
   467       C         69.18900000  *  151.69800000  * -59.08000000  *
   468       H         69.52500000  *  150.81900000  * -59.63900000  *
   469       C         68.73700000  *  152.76800000  * -60.08300000  *
   470       H         67.83400000  *  152.41100000  * -60.57900000  *
   471       H         68.47700000  *  153.68100000  * -59.53700000  *
   472       C         69.79100000  *  153.06900000  * -61.13100000  *
   473       H         70.72100000  *  153.35000000  * -60.64200000  *
   474       H         69.97400000  *  152.16800000  * -61.71600000  *
   475       C         69.35100000  *  154.17900000  * -62.08100000  *
   476       H         68.50200000  *  153.81400000  * -62.66100000  *
   477       H         69.02300000  *  155.05600000  * -61.52200000  *
   478       C         70.49800000  *  154.55900000  * -63.02400000  *
   479       H         71.33900000  *  154.89000000  * -62.40800000  *
   480       H         70.81900000  *  153.66100000  * -63.56600000  *
   481       N         70.11800000  *  155.62600000  * -63.99700000  *
   482       H         69.74700000  *  156.41600000  * -63.48300000  *
   483       H         70.92600000  *  155.93300000  * -64.52500000  *
   484       H         69.41500000  *  155.27800000  * -64.63600000  *
   485       C         70.36000000  *  152.21400000  * -58.25300000  *
   486       O         70.19400000  *  153.07400000  * -57.38700000  *
   487       N         71.53700000  *  151.64500000  * -58.50700000  *
   488       H         71.59600000  *  150.90400000  * -59.18600000  *
   489       C         72.75000000  *  152.07400000  * -57.83600000  *
   490       H         72.53800000  *  152.52600000  * -56.87100000  *
   491       C         73.72700000  *  150.91100000  * -57.67000000  *
   492       H         73.31500000  *  150.22100000  * -56.93700000  *
   493       H         73.77900000  *  150.36900000  * -58.62000000  *
   494       C         75.16700000  *  151.27300000  * -57.28800000  *
   495       H         75.65500000  *  151.80300000  * -58.10000000  *
   496       C         75.18300000  *  152.16500000  * -56.05900000  *
   497       H         74.60800000  *  151.72100000  * -55.25200000  *
   498       H         76.21000000  *  152.29600000  * -55.73500000  *
   499       H         74.78900000  *  153.14000000  * -56.31200000  *
   500       C         75.93300000  *  149.99400000  * -57.01300000  *
   501       H         75.98300000  *  149.42100000  * -57.93300000  *
   502       H         76.94600000  *  150.24200000  * -56.71200000  *
   503       H         75.43500000  *  149.41000000  * -56.23200000  *
   504       C         73.31900000  *  153.11300000  * -58.79500000  *
   505       O         73.76900000  *  152.77900000  * -59.89700000  *
   506       N         73.26700000  *  154.36900000  * -58.37800000  *
   507       H         72.92600000  *  154.57000000  * -57.44900000  *
   508       C         73.73400000  *  155.46600000  * -59.19700000  *
   509       H         73.47500000  *  155.26500000  * -60.23600000  *
   510       C         73.02500000  *  156.74200000  * -58.76000000  *
   511       H         73.45000000  *  157.06300000  * -57.80900000  *
   512       H         73.23600000  *  157.53300000  * -59.48700000  *
   513       C         71.51300000  *  156.60300000  * -58.58700000  *
   514       H         71.27400000  *  155.80900000  * -57.88500000  *
   515       C         70.97400000  *  157.88000000  * -58.01900000  *
   516       H         71.37000000  *  158.74600000  * -58.56000000  *
   517       H         69.88800000  *  157.89100000  * -58.09300000  *
   518       H         71.22100000  *  157.96000000  * -56.96600000  *
   519       C         70.85100000  *  156.29000000  * -59.92300000  *
   520       H         71.28300000  *  155.39700000  * -60.34200000  *
   521       H         69.78900000  *  156.14400000  * -59.75100000  *
   522       H         71.00300000  *  157.12700000  * -60.60700000  *
   523       C         75.24500000  *  155.67800000  * -59.15800000  *
   524       O         75.83900000  *  156.04700000  * -60.17600000  *
   525       N         75.86200000  *  155.44600000  * -57.99600000  *
   526       H         75.29500000  *  155.17900000  * -57.20400000  *
   527       C         77.30800000  *  155.64700000  * -57.82900000  *
   528       H         77.80800000  *  155.40400000  * -58.76600000  *
   529       C         77.60000000  *  157.11700000  * -57.51900000  *
   530       H         76.91700000  *  157.54400000  * -56.80300000  *
   531       H         78.58200000  *  157.17000000  * -57.04800000  *
   532       C         77.65600000  *  157.97500000  * -58.75600000  *
   533       O         78.67800000  *  157.91700000  * -59.48300000  *
   534       O         76.67400000  *  158.70400000  * -59.00000000  *
   535       C         77.97900000  *  154.81700000  * -56.73400000  *
   536       O         77.37100000  *  154.52100000  * -55.70400000  *
   537       N         79.24700000  *  154.47700000  * -56.96600000  *
   538       H         79.69800000  *  154.82400000  * -57.79800000  *
   539       C         80.06100000  *  153.73800000  * -56.00300000  *
   540       H         79.55400000  *  153.69900000  * -55.05200000  *
   541       C         80.36600000  *  152.29800000  * -56.50400000  *
   542       H         79.42700000  *  151.75200000  * -56.56200000  *
   543       C         80.98100000  *  152.34300000  * -57.88400000  *
   544       H         82.06600000  *  152.43300000  * -57.82100000  *
   545       H         80.74600000  *  151.41400000  * -58.37900000  *
   546       H         80.59600000  *  153.14500000  * -58.51000000  *
   547       C         81.29900000  *  151.58800000  * -55.53900000  *
   548       H         80.81100000  *  151.54900000  * -54.57200000  *
   549       H         81.47300000  *  150.57200000  * -55.87800000  *
   550       H         82.25900000  *  152.09200000  * -55.44900000  *
   551       C         81.36500000  *  154.53600000  * -55.81000000  *
   552       O         82.27000000  *  154.48900000  * -56.64700000  *
   553       N         81.45200000  *  155.28200000  * -54.71000000  *
   554       H         80.67600000  *  155.30400000  * -54.06400000  *
   555       C         82.62100000  *  156.11100000  * -54.44300000  *
   556       H         83.20500000  *  156.21800000  * -55.35800000  *
   557       H         82.32200000  *  157.12800000  * -54.14500000  *
   558       H         83.29700000  *  155.73900000  * -53.65600000  *
   559       H         84.58000000  *  155.17100000  * -47.07300000  *
   560       C         84.22500000  *  154.98400000  * -48.09100000  *
   561       O         84.63900000  *  155.65900000  * -49.04200000  *
   562       N         83.35800000  *  153.99100000  * -48.22200000  *
   563       H         83.13600000  *  153.42800000  * -47.41700000  *
   564       C         82.77600000  *  153.65100000  * -49.50600000  *
   565       H         83.37000000  *  154.04700000  * -50.31700000  *
   566       C         82.71900000  *  152.14000000  * -49.66000000  *
   567       H         83.74000000  *  151.87500000  * -49.95700000  *
   568       H         82.64400000  *  151.54600000  * -48.78400000  *
   569       C         81.82600000  *  151.61900000  * -50.77900000  *
   570       H         80.79100000  *  151.88400000  * -50.58700000  *
   571       C         82.25800000  *  152.23100000  * -52.09200000  *
   572       H         83.31100000  *  152.49100000  * -52.08900000  *
   573       H         82.09300000  *  151.51300000  * -52.88400000  *
   574       H         81.65400000  *  153.10900000  * -52.31200000  *
   575       C         81.89900000  *  150.09400000  * -50.82200000  *
   576       H         81.91300000  *  149.66400000  * -49.82700000  *
   577       H         81.05200000  *  149.70600000  * -51.39100000  *
   578       H         82.82500000  *  149.80300000  * -51.32100000  *
   579       C         81.36700000  *  154.23200000  * -49.54800000  *
   580       O         80.51800000  *  153.85700000  * -48.74500000  *
   581       N         81.13100000  *  155.16100000  * -50.46700000  *
   582       H         81.84500000  *  155.34800000  * -51.16200000  *
   583       C         79.82200000  *  155.78100000  * -50.60800000  *
   584       H         79.27400000  *  155.67000000  * -49.68700000  *
   585       C         79.96700000  *  157.27800000  * -50.86800000  *
   586       H         80.42300000  *  157.50400000  * -51.79700000  *
   587       H         78.95400000  *  157.66400000  * -50.98900000  *
   588       C         80.57600000  *  158.04300000  * -49.72300000  *
   589       C         79.79300000  *  158.48000000  * -48.65600000  *
   590       H         78.73500000  *  158.25400000  * -48.66900000  *
   591       C         80.35600000  *  159.18600000  * -47.59400000  *
   592       H         79.75300000  *  159.56200000  * -46.79700000  *
   593       C         81.71600000  *  159.45200000  * -47.58700000  *
   594       O         82.27600000  *  160.12500000  * -46.52100000  *
   595       H         83.20600000  *  160.30800000  * -46.74500000  *
   596       C         82.51400000  *  159.02600000  * -48.63700000  *
   597       H         83.58200000  *  159.23300000  * -48.65000000  *
   598       C         81.94100000  *  158.32800000  * -49.69800000  *
   599       H         82.57400000  *  157.98100000  * -50.50200000  *
   600       C         79.04800000  *  155.15800000  * -51.76500000  *
   601       O         79.54400000  *  155.08000000  * -52.88800000  *
   602       N         77.86400000  *  154.61900000  * -51.49400000  *
   603       H         77.54100000  *  154.63200000  * -50.53300000  *
   604       C         76.98200000  *  154.05600000  * -52.51600000  *
   605       H         77.50800000  *  154.01000000  * -53.46300000  *
   606       C         76.54600000  *  152.62200000  * -52.17200000  *
   607       H         75.84900000  *  152.66000000  * -51.34300000  *
   608       H         76.00700000  *  152.22400000  * -53.03300000  *
   609       C         77.68200000  *  151.65000000  * -51.81200000  *
   610       H         78.18900000  *  151.99000000  * -50.91000000  *
   611       C         77.11200000  *  150.25700000  * -51.55000000  *
   612       H         76.62300000  *  149.87500000  * -52.44800000  *
   613       H         77.91700000  *  149.57600000  * -51.26600000  *
   614       H         76.39000000  *  150.30200000  * -50.73700000  *
   615       C         78.69600000  *  151.53600000  * -52.94300000  *
   616       H         79.21300000  *  152.48400000  * -53.06600000  *
   617       H         79.43300000  *  150.77500000  * -52.69600000  *
   618       H         78.19000000  *  151.27500000  * -53.87400000  *
   619       C         75.78600000  *  154.98500000  * -52.67200000  *
   620       O         75.10200000  *  155.25600000  * -51.68200000  *
   621       N         75.54700000  *  155.50800000  * -53.87800000  *
   622       H         76.14500000  *  155.25500000  * -54.66000000  *
   623       C         74.40900000  *  156.37500000  * -54.09400000  *
   624       H         73.97600000  *  156.70200000  * -53.15000000  *
   625       C         74.83400000  *  157.63700000  * -54.81800000  *
   626       H         75.25500000  *  157.34500000  * -55.76600000  *
   627       C         73.61400000  *  158.52200000  * -55.10900000  *
   628       H         73.11700000  *  158.76900000  * -54.17500000  *
   629       H         73.94100000  *  159.43100000  * -55.61500000  *
   630       H         72.91600000  *  158.00900000  * -55.76200000  *
   631       C         75.84000000  *  158.38200000  * -53.94900000  *
   632       H         75.28100000  *  158.78400000  * -53.13000000  *
   633       H         76.65600000  *  157.75800000  * -53.60500000  *
   634       H         76.26100000  *  159.20400000  * -54.52500000  *
   635       C         73.31400000  *  155.64400000  * -54.85300000  *
   636       O         73.49500000  *  155.22100000  * -55.99400000  *
   637       N         72.20700000  *  155.38700000  * -54.16300000  *
   638       H         72.13600000  *  155.73900000  * -53.21200000  *
   639       C         71.03000000  *  154.72300000  * -54.71200000  *
   640       H         71.28400000  *  154.26400000  * -55.66400000  *
   641       C         70.56300000  *  153.62100000  * -53.75700000  *
   642       H         70.40700000  *  154.05300000  * -52.76900000  *
   643       H         69.59800000  *  153.26000000  * -54.10400000  *
   644       C         71.49700000  *  152.43200000  * -53.63100000  *
   645       C         71.37000000  *  151.33800000  * -54.50900000  *
   646       H         70.63400000  *  151.35800000  * -55.30000000  *
   647       C         72.19100000  *  150.20700000  * -54.35700000  *
   648       H         72.08100000  *  149.36400000  * -55.02600000  *
   649       C         73.14900000  *  150.16800000  * -53.33000000  *
   650       H         73.78100000  *  149.29700000  * -53.21200000  *
   651       C         73.28400000  *  151.26100000  * -52.45700000  *
   652       H         74.01200000  *  151.22300000  * -51.66100000  *
   653       C         72.46400000  *  152.39400000  * -52.60700000  *
   654       H         72.56700000  *  153.23000000  * -51.92800000  *
   655       C         69.90600000  *  155.73300000  * -54.95200000  *
   656       O         69.76600000  *  156.70300000  * -54.20500000  *
   657       N         69.08400000  *  155.51500000  * -55.97900000  *
   658       H         69.23900000  *  154.69100000  * -56.55200000  *
   659       C         67.82000000  *  156.25400000  * -56.12700000  *
   660       H         68.06100000  *  157.30300000  * -56.30400000  *
   661       C         67.03100000  *  155.74500000  * -57.34600000  *
   662       H         66.17300000  *  156.40200000  * -57.48500000  *
   663       H         67.66300000  *  155.81200000  * -58.23300000  *
   664       C         66.53400000  *  154.29900000  * -57.19200000  *
   665       H         67.39600000  *  153.64400000  * -57.05900000  *
   666       H         65.91300000  *  154.22400000  * -56.30300000  *
   667       C         65.68900000  *  153.80000000  * -58.36700000  *
   668       O         65.18300000  *  154.61100000  * -59.17500000  *
   669       O         65.49000000  *  152.56700000  * -58.44500000  *
   670       C         66.98200000  *  156.17200000  * -54.83300000  *
   671       O         66.91600000  *  155.11700000  * -54.20000000  *
   672       N         66.35400000  *  157.26800000  * -54.40700000  *
   673       H         66.39100000  *  158.11400000  * -54.95800000  *
   674       C         65.50300000  *  157.25500000  * -53.21300000  *
   675       H         65.98200000  *  156.63600000  * -52.45100000  *
   676       C         65.39200000  *  158.67000000  * -52.64300000  *
   677       H         66.39200000  *  159.02800000  * -52.40300000  *
   678       H         64.97400000  *  159.32800000  * -53.40600000  *
   679       C         64.54800000  *  158.76900000  * -51.38700000  *
   680       C         63.24800000  *  159.30800000  * -51.44500000  *
   681       H         62.84600000  *  159.65900000  * -52.38500000  *
   682       C         62.46700000  *  159.39000000  * -50.27900000  *
   683       H         61.46900000  *  159.80300000  * -50.32900000  *
   684       C         62.98000000  *  158.93100000  * -49.05400000  *
   685       H         62.37600000  *  158.99100000  * -48.15800000  *
   686       C         64.27800000  *  158.39400000  * -48.99300000  *
   687       H         64.67200000  *  158.04600000  * -48.04900000  *
   688       C         65.06100000  *  158.31300000  * -50.15800000  *
   689       H         66.05900000  *  157.90000000  * -50.11000000  *
   690       C         64.11900000  *  156.65400000  * -53.50200000  *
   691       O         63.46700000  *  157.02100000  * -54.48300000  *
   692       N         63.65000000  *  155.77800000  * -52.60900000  *
   693       H         64.26200000  *  155.50800000  * -51.84900000  *
   694       C         62.25600000  *  155.33100000  * -52.52200000  *
   695       H         61.64900000  *  155.87200000  * -53.25100000  *
   696       C         62.13500000  *  153.82500000  * -52.81000000  *
   697       H         62.86700000  *  153.28500000  * -52.21100000  *
   698       H         61.14300000  *  153.51200000  * -52.48100000  *
   699       C         62.29000000  *  153.45700000  * -54.29900000  *
   700       H         61.93900000  *  154.28200000  * -54.91900000  *
   701       C         63.74200000  *  153.13700000  * -54.65600000  *
   702       H         64.11100000  *  152.33300000  * -54.02300000  *
   703       H         63.81200000  *  152.84600000  * -55.70400000  *
   704       H         64.36300000  *  154.01700000  * -54.50400000  *
   705       C         61.44800000  *  152.22400000  * -54.63700000  *
   706       H         60.40300000  *  152.40900000  * -54.38500000  *
   707       H         61.50800000  *  152.01900000  * -55.70500000  *
   708       H         61.80100000  *  151.35700000  * -54.08200000  *
   709       C         61.70200000  *  155.67200000  * -51.13400000  *
   710       O         62.42600000  *  155.64000000  * -50.14100000  *
   711       N         60.42800000  *  156.05200000  * -51.07000000  *
   712       H         59.90200000  *  156.08700000  * -51.93500000  *
   713       C         59.84000000  *  156.74400000  * -49.91800000  *
   714       H         60.54000000  *  157.51600000  * -49.59800000  *
   715       C         58.55900000  *  157.45300000  * -50.37900000  *
   716       H         57.79500000  *  156.70300000  * -50.58200000  *
   717       H         58.20800000  *  158.09200000  * -49.56900000  *
   718       C         58.72500000  *  158.30100000  * -51.62000000  *
   719       N         58.79200000  *  157.81500000  * -52.93100000  *
   720       C         58.96300000  *  158.89400000  * -53.71500000  *
   721       H         59.05300000  *  158.87000000  * -54.79600000  *
   722       N         59.00700000  *  160.01100000  * -52.96900000  *
   723       H         59.12500000  *  160.95100000  * -53.33500000  *
   724       C         58.86100000  *  159.65800000  * -51.64600000  *
   725       H         58.85400000  *  160.32000000  * -50.78900000  *
   726       C         59.57500000  *  155.87300000  * -48.67600000  *
   727       O         59.44900000  *  156.42100000  * -47.58000000  *
   728       N         59.48300000  *  154.54500000  * -48.81700000  *
   729       H         59.61000000  *  154.15200000  * -49.74000000  *
   730       C         59.10300000  *  153.61900000  * -47.73800000  *
   731       H         59.55800000  *  153.96200000  * -46.80800000  *
   732       C         57.56900000  *  153.66700000  * -47.56600000  *
   733       H         57.29100000  *  154.68300000  * -47.28200000  *
   734       H         57.08400000  *  153.43800000  * -48.51600000  *
   735       C         57.04000000  *  152.70100000  * -46.49600000  *
   736       H         56.91600000  *  151.71400000  * -46.93800000  *
   737       H         57.76500000  *  152.63000000  * -45.68600000  *
   738       C         55.72000000  *  153.16000000  * -45.89000000  *
   739       O         55.67500000  *  153.87500000  * -44.90200000  *
   740       N         54.59200000  *  152.77400000  * -46.44700000  *
   741       H         53.74000000  *  153.10000000  * -46.01800000  *
   742       H         54.59900000  *  152.21400000  * -47.28100000  *
   743       C         59.61100000  *  152.18700000  * -47.99100000  *
   744       O         59.67700000  *  151.74200000  * -49.13900000  *
   745       N         59.95300000  *  151.45600000  * -46.92300000  *
   746       H         59.85800000  *  151.87900000  * -46.00000000  *
   747       C         60.28000000  *  150.02300000  * -46.99600000  *
   748       H         60.57500000  *  149.80400000  * -48.01900000  *
   749       C         61.50700000  *  149.68800000  * -46.12900000  *
   750       H         61.83400000  *  148.68100000  * -46.39000000  *
   751       H         62.31500000  *  150.36900000  * -46.39900000  *
   752       C         61.28800000  *  149.73600000  * -44.61200000  *
   753       O         60.30800000  *  149.13500000  * -44.12400000  *
   754       O         62.14700000  *  150.32300000  * -43.91400000  *
   755       C         59.07400000  *  149.10800000  * -46.70000000  *
   756       O         58.04000000  *  149.54000000  * -46.17200000  *
   757       N         59.19100000  *  147.81900000  * -47.04800000  *
   758       H         60.03800000  *  147.50900000  * -47.52500000  *
   759       C         58.10100000  *  146.88000000  * -46.84100000  *
   760       H         57.21800000  *  147.32500000  * -47.29300000  *
   761       C         58.41200000  *  145.57700000  * -47.59200000  *
   762       H         58.61300000  *  145.80400000  * -48.64400000  *
   763       H         59.28800000  *  145.12100000  * -47.15800000  *
   764       C         57.28700000  *  144.52700000  * -47.51900000  *
   765       H         57.05600000  *  144.28000000  * -46.48700000  *
   766       C         56.00700000  *  145.04400000  * -48.19600000  *
   767       H         56.23500000  *  145.37800000  * -49.20200000  *
   768       H         55.26800000  *  144.24500000  * -48.23100000  *
   769       H         55.59500000  *  145.87000000  * -47.62900000  *
   770       C         57.76800000  *  143.24900000  * -48.17500000  *
   771       H         58.61500000  *  142.85400000  * -47.62000000  *
   772       H         56.97300000  *  142.50400000  * -48.17100000  *
   773       H         58.06400000  *  143.44500000  * -49.20700000  *
   774       C         57.76400000  *  146.61300000  * -45.36900000  *
   775       O         56.60900000  *  146.37600000  * -45.03000000  *
   776       N         58.75700000  *  146.67700000  * -44.48800000  *
   777       H         59.64000000  *  147.08600000  * -44.79000000  *
   778       C         58.49100000  *  146.46700000  * -43.07300000  *
   779       H         57.97900000  *  145.55100000  * -42.87200000  *
   780       C         59.78200000  *  146.47800000  * -42.25400000  *
   781       H         60.44800000  *  145.70000000  * -42.62000000  *
   782       H         60.28600000  *  147.44000000  * -42.35600000  *
   783       C         59.49200000  *  146.22900000  * -40.76500000  *
   784       H         58.94200000  *  147.08300000  * -40.37400000  *
   785       H         58.87100000  *  145.33200000  * -40.67600000  *
   786       C         60.74500000  *  146.03800000  * -39.93500000  *
   787       H         61.36100000  *  145.25900000  * -40.37900000  *
   788       H         61.30800000  *  146.97100000  * -39.90700000  *
   789       C         60.37600000  *  145.60700000  * -38.51700000  *
   790       H         59.98500000  *  144.58900000  * -38.53700000  *
   791       H         61.27900000  *  145.61300000  * -37.90300000  *
   792       N         59.34600000  *  146.53100000  * -37.94700000  *
   793       H         58.44600000  *  146.48100000  * -38.44300000  *
   794       H         59.09000000  *  146.27800000  * -37.00400000  *
   795       H         59.61300000  *  147.50600000  * -37.97800000  *
   796       C         57.55800000  *  147.53800000  * -42.51200000  *
   797       O         56.61300000  *  147.23400000  * -41.78300000  *
   798       N         57.83600000  *  148.81600000  * -42.79700000  *
   799       H         58.66500000  *  149.01300000  * -43.36300000  *
   800       C         56.99600000  *  149.92500000  * -42.32200000  *
   801       H         56.88100000  *  149.83100000  * -41.24000000  *
   802       C         57.66300000  *  151.27900000  * -42.61200000  *
   803       H         58.65800000  *  151.28400000  * -42.16600000  *
   804       H         57.76200000  *  151.41600000  * -43.69000000  *
   805       C         56.83900000  *  152.43200000  * -42.01300000  *
   806       H         55.87800000  *  152.49000000  * -42.52500000  *
   807       H         56.65500000  *  152.22600000  * -40.95700000  *
   808       C         57.54500000  *  153.78800000  * -42.13200000  *
   809       H         58.46800000  *  153.76100000  * -41.55200000  *
   810       H         57.77900000  *  153.98400000  * -43.18000000  *
   811       C         56.62200000  *  154.88800000  * -41.59100000  *
   812       H         55.70500000  *  154.89900000  * -42.18800000  *
   813       H         56.34600000  *  154.63700000  * -40.56200000  *
   814       N         57.26600000  *  156.22600000  * -41.62600000  *
   815       H         57.50400000  *  156.49600000  * -42.56900000  *
   816       H         56.64700000  *  156.93400000  * -41.25500000  *
   817       H         58.10900000  *  156.24200000  * -41.07100000  *
   818       C         55.59700000  *  149.82000000  * -42.91900000  *
   819       O         54.61400000  *  150.04600000  * -42.21900000  *
   820       N         55.49500000  *  149.42600000  * -44.18900000  *
   821       H         56.35000000  *  149.26300000  * -44.71300000  *
   822       C         54.20500000  *  149.26000000  * -44.85200000  *
   823       H         53.62600000  *  150.17500000  * -44.72500000  *
   824       C         54.41000000  *  148.98800000  * -46.34000000  *
   825       H         54.98900000  *  149.80200000  * -46.77700000  *
   826       H         55.00200000  *  148.07700000  * -46.45200000  *
   827       C         53.12600000  *  148.85300000  * -47.10800000  *
   828       C         52.23100000  *  149.92200000  * -47.18600000  *
   829       H         52.46300000  *  150.85600000  * -46.69900000  *
   830       C         51.01500000  *  149.79500000  * -47.88400000  *
   831       H         50.32500000  *  150.62800000  * -47.91800000  *
   832       C         50.69700000  *  148.60300000  * -48.50200000  *
   833       H         49.75200000  *  148.50200000  * -49.02000000  *
   834       C         51.58700000  *  147.52100000  * -48.43200000  *
   835       H         51.33500000  *  146.58300000  * -48.91200000  *
   836       C         52.79500000  *  147.65400000  * -47.73300000  *
   837       H         53.46700000  *  146.81000000  * -47.67200000  *
   838       C         53.37400000  *  148.12200000  * -44.22700000  *
   839       O         52.16900000  *  148.28300000  * -44.00900000  *
   840       N         54.01600000  *  146.98100000  * -43.96600000  *
   841       H         55.00900000  *  146.90600000  * -44.17900000  *
   842       C         53.33800000  *  145.83600000  * -43.34100000  *
   843       H         52.47600000  *  145.52800000  * -43.93400000  *
   844       C         54.29200000  *  144.65000000  * -43.17000000  *
   845       H         55.15800000  *  145.02700000  * -42.63600000  *
   846       H         53.80700000  *  143.89200000  * -42.54700000  *
   847       C         54.73100000  *  144.00400000  * -44.46100000  *
   848       H         53.84700000  *  143.61400000  * -44.95900000  *
   849       H         55.19200000  *  144.69400000  * -45.15000000  *
   850       S         55.79700000  *  142.58100000  * -44.15400000  *
   851       C         57.05400000  *  143.29200000  * -43.18800000  *
   852       H         56.67800000  *  143.65800000  * -42.23500000  *
   853       H         57.80700000  *  142.53400000  * -42.98200000  *
   854       H         57.44300000  *  144.07900000  * -43.80900000  *
   855       C         52.84400000  *  146.26000000  * -41.95900000  *
   856       O         51.68200000  *  146.03200000  * -41.61400000  *
   857       N         53.72600000  *  146.88400000  * -41.17900000  *
   858       H         54.70100000  *  146.95700000  * -41.45300000  *
   859       C         53.34300000  *  147.35100000  * -39.84600000  *
   860       H         53.03400000  *  146.49700000  * -39.23800000  *
   861       C         54.50500000  *  148.07700000  * -39.15700000  *
   862       H         54.94100000  *  148.81500000  * -39.83000000  *
   863       H         54.12400000  *  148.60600000  * -38.28400000  *
   864       C         55.58400000  *  147.11500000  * -38.68500000  *
   865       O         55.26200000  *  145.90900000  * -38.57600000  *
   866       O         56.73300000  *  147.55200000  * -38.41700000  *
   867       C         52.15000000  *  148.27900000  * -39.96300000  *
   868       O         51.20300000  *  148.18000000  * -39.18700000  *
   869       N         52.18300000  *  149.16200000  * -40.95500000  *
   870       H         53.01600000  *  149.23700000  * -41.51800000  *
   871       C         51.08600000  *  150.10000000  * -41.17300000  *
   872       H         50.93100000  *  150.67400000  * -40.25800000  *
   873       C         51.42800000  *  151.06800000  * -42.31500000  *
   874       H         51.45500000  *  150.53900000  * -43.26600000  *
   875       H         50.66000000  *  151.83800000  * -42.36800000  *
   876       H         52.39300000  *  151.53600000  * -42.12800000  *
   877       C         49.78900000  *  149.37000000  * -41.49900000  *
   878       O         48.71100000  *  149.83600000  * -41.15600000  *
   879       N         49.90500000  *  148.22900000  * -42.16400000  *
   880       H         50.83800000  *  147.88500000  * -42.38200000  *
   881       C         48.74000000  *  147.45400000  * -42.57500000  *
   882       H         47.85700000  *  148.08600000  * -42.62800000  *
   883       H         48.90600000  *  147.02300000  * -43.58600000  *
   884       H         48.52600000  *  146.61900000  * -41.88800000  *
   885       H         72.54500000  *  137.05800000  * -55.15200000  *
   886       C         72.38600000  *  137.90500000  * -54.47400000  *
   887       O         73.28300000  *  138.71900000  * -54.28600000  *
   888       N         71.20100000  *  138.01500000  * -53.89800000  *
   889       H         70.47300000  *  137.31400000  * -54.05700000  *
   890       C         70.96800000  *  139.10000000  * -52.94900000  *
   891       H         71.50000000  *  140.00600000  * -53.22900000  *
   892       C         69.47700000  *  139.40500000  * -52.82500000  *
   893       H         69.09300000  *  139.71900000  * -53.79200000  *
   894       H         68.93000000  *  138.50600000  * -52.53300000  *
   895       C         69.17800000  *  140.45400000  * -51.81200000  *
   896       N         69.23000000  *  140.42300000  * -50.45900000  *
   897       C         68.94700000  *  141.69100000  * -50.01400000  *
   898       H         68.96900000  *  142.01200000  * -48.98400000  *
   899       N         68.72400000  *  142.47200000  * -51.05500000  *
   900       H         68.47200000  *  143.44500000  * -51.00700000  *
   901       C         68.85400000  *  141.75000000  * -52.15500000  *
   902       H         68.77100000  *  142.12600000  * -53.16500000  *
   903       C         71.52100000  *  138.65700000  * -51.58300000  *
   904       O         72.28000000  *  139.38000000  * -50.94700000  *
   905       N         71.11400000  *  137.47100000  * -51.14500000  *
   906       H         70.37100000  *  137.01600000  * -51.66500000  *
   907       C         71.55500000  *  136.88000000  * -49.87700000  *
   908       H         71.18200000  *  135.84900000  * -49.87900000  *
   909       C         73.07600000  *  136.85300000  * -49.83700000  *
   910       H         73.53100000  *  137.83300000  * -49.86900000  *
   911       H         73.36600000  *  136.47900000  * -48.85100000  *
   912       C         73.64700000  *  135.85900000  * -50.81700000  *
   913       H         73.29800000  *  134.87100000  * -50.67200000  *
   914       H         73.21600000  *  136.10500000  * -51.78700000  *
   915       C         75.11700000  *  136.08400000  * -50.99900000  *
   916       H         75.61200000  *  135.95400000  * -50.03300000  *
   917       H         75.49500000  *  135.33200000  * -51.69500000  *
   918       N         75.35800000  *  137.42700000  * -51.50600000  *
   919       H         74.62100000  *  138.12700000  * -51.38200000  *
   920       C         76.54800000  *  137.85900000  * -51.89000000  *
   921       N         77.59300000  *  137.04400000  * -51.81500000  *
   922       H         77.44700000  *  136.21200000  * -51.26800000  *
   923       H         78.49900000  *  137.44300000  * -51.92100000  *
   924       N         76.69000000  *  139.09300000  * -52.35600000  *
   925       H         75.86000000  *  139.69200000  * -52.33800000  *
   926       H         77.56200000  *  139.47800000  * -52.67100000  *
   927       C         71.03700000  *  137.42400000  * -48.54200000  *
   928       O         71.18700000  *  136.76800000  * -47.50900000  *
   929       N         70.43700000  *  138.60400000  * -48.51600000  *
   930       H         70.32800000  *  139.16900000  * -49.34700000  *
   931       C         69.93700000  *  139.07600000  * -47.23100000  *
   932       H         69.76500000  *  138.24900000  * -46.54100000  *
   933       C         70.93500000  *  140.04200000  * -46.56200000  *
   934       H         71.90900000  *  139.56600000  * -46.50900000  *
   935       H         71.04400000  *  140.94300000  * -47.17900000  *
   936       C         70.51300000  *  140.42800000  * -45.14700000  *
   937       O         70.17200000  *  139.51500000  * -44.35500000  *
   938       O         70.51000000  *  141.64400000  * -44.82500000  *
   939       C         68.58700000  *  139.73400000  * -47.37800000  *
   940       O         68.35000000  *  140.81000000  * -46.83500000  *
   941       N         67.68700000  *  139.08300000  * -48.11000000  *
   942       H         67.94300000  *  138.20800000  * -48.54500000  *
   943       C         66.35900000  *  139.64900000  * -48.29900000  *
   944       H         66.47700000  *  140.66700000  * -48.65900000  *
   945       C         65.54600000  *  138.81300000  * -49.28800000  *
   946       H         65.58300000  *  137.78400000  * -48.94500000  *
   947       H         64.50600000  *  139.14000000  * -49.25500000  *
   948       C         66.02700000  *  138.85500000  * -50.73600000  *
   949       H         67.06400000  *  138.52800000  * -50.78200000  *
   950       C         65.17300000  *  137.91700000  * -51.58300000  *
   951       H         64.15900000  *  138.30500000  * -51.68800000  *
   952       H         65.63400000  *  137.80700000  * -52.55000000  *
   953       H         65.13400000  *  136.93500000  * -51.11000000  *
   954       C         65.92100000  *  140.27700000  * -51.26400000  *
   955       H         66.42000000  *  140.99600000  * -50.63300000  *
   956       H         66.44200000  *  140.27500000  * -52.20900000  *
   957       H         64.88200000  *  140.56100000  * -51.39700000  *
   958       C         65.59400000  *  139.73400000  * -46.98200000  *
   959       O         65.58600000  *  138.79200000  * -46.16600000  *
   960       N         64.95600000  *  140.85500000  * -46.74600000  *
   961       H         64.96500000  *  141.58600000  * -47.44400000  *
   962       C         64.16700000  *  141.06300000  * -45.54700000  *
   963       H         63.55700000  *  140.17100000  * -45.40500000  *
   964       C         65.04700000  *  141.23000000  * -44.28800000  *
   965       H         64.41100000  *  141.30200000  * -43.40500000  *
   966       H         65.64000000  *  140.32400000  * -44.16500000  *
   967       C         65.99000000  *  142.44000000  * -44.30000000  *
   968       H         66.40400000  *  142.57600000  * -45.29700000  *
   969       H         65.44000000  *  143.33600000  * -44.01500000  *
   970       C         67.14200000  *  142.18400000  * -43.32200000  *
   971       H         66.74100000  *  141.92300000  * -42.34000000  *
   972       H         67.72100000  *  141.33700000  * -43.70000000  *
   973       C         68.05300000  *  143.40700000  * -43.18400000  *
   974       H         68.16000000  *  143.88400000  * -44.16300000  *
   975       H         67.57200000  *  144.12600000  * -42.51000000  *
   976       N         69.38700000  *  143.00600000  * -42.66500000  *
   977       H         69.87900000  *  142.42900000  * -43.36200000  *
   978       H         69.95400000  *  143.81500000  * -42.44600000  *
   979       H         69.29300000  *  142.46300000  * -41.81700000  *
   980       C         63.26400000  *  142.22800000  * -45.83900000  *
   981       O         63.62200000  *  143.07100000  * -46.66200000  *
   982       N         62.11200000  *  142.30300000  * -45.18600000  *
   983       C         61.62600000  *  141.34600000  * -44.17100000  *
   984       H         62.10000000  *  141.53200000  * -43.20900000  *
   985       H         61.74500000  *  140.31100000  * -44.47600000  *
   986       C         60.16400000  *  141.66900000  * -44.09500000  *
   987       H         59.73700000  *  141.34900000  * -43.14300000  *
   988       H         59.63700000  *  141.20600000  * -44.93200000  *
   989       C         60.16000000  *  143.18900000  * -44.24800000  *
   990       H         60.51600000  *  143.64900000  * -43.32100000  *
   991       H         59.20200000  *  143.56500000  * -44.57400000  *
   992       C         61.14500000  *  143.38000000  * -45.40300000  *
   993       H         60.63400000  *  143.20500000  * -46.34500000  *
   994       C         61.77100000  *  144.77100000  * -45.44800000  *
   995       O         61.39200000  *  145.58400000  * -46.27300000  *
   996       N         62.73200000  *  145.08700000  * -44.56200000  *
   997       H         62.97500000  *  144.39800000  * -43.86500000  *
   998       C         63.45400000  *  146.38300000  * -44.54100000  *
   999       H         62.72400000  *  147.19000000  * -44.45800000  *
  1000       C         64.39800000  *  146.45300000  * -43.32600000  *
  1001       H         65.08200000  *  145.60500000  * -43.35700000  *
  1002       H         64.99400000  *  147.36400000  * -43.40600000  *
  1003       C         63.68500000  *  146.48800000  * -41.96800000  *
  1004       H         62.99100000  *  147.33000000  * -41.95600000  *
  1005       H         63.12100000  *  145.56800000  * -41.82700000  *
  1006       C         64.67600000  *  146.62500000  * -40.81000000  *
  1007       O         65.69400000  *  145.94900000  * -40.74400000  *
  1008       N         64.42200000  *  147.48800000  * -39.85100000  *
  1009       H         65.08600000  *  147.56800000  * -39.09400000  *
  1010       H         63.61200000  *  148.08700000  * -39.89000000  *
  1011       C         64.30200000  *  146.66600000  * -45.79900000  *
  1012       O         64.53600000  *  147.82100000  * -46.14500000  *
  1013       N         64.76600000  *  145.61600000  * -46.48100000  *
  1014       H         64.45500000  *  144.69900000  * -46.19300000  *
  1015       C         65.54000000  *  145.67700000  * -47.72200000  *
  1016       H         66.10900000  *  146.60900000  * -47.75500000  *
  1017       C         66.54500000  *  144.49500000  * -47.76000000  *
  1018       H         66.04400000  *  143.57300000  * -47.47900000  *
  1019       H         66.90600000  *  144.36200000  * -48.77700000  *
  1020       C         67.78500000  *  144.68500000  * -46.89500000  *
  1021       O         68.09500000  *  145.76700000  * -46.42800000  *
  1022       N         68.54300000  *  143.64200000  * -46.63600000  *
  1023       H         69.41300000  *  143.79600000  * -46.15500000  *
  1024       H         68.29100000  *  142.69100000  * -46.89300000  *
  1025       C         64.63200000  *  145.69800000  * -48.97000000  *
  1026       O         65.15200000  *  145.60900000  * -50.08100000  *
  1027       N         63.30000000  *  145.80300000  * -48.83400000  *
  1028       H         62.89500000  *  145.87300000  * -47.90900000  *
  1029       C         62.40600000  *  145.84500000  * -49.97900000  *
  1030       H         62.94700000  *  145.74800000  * -50.91900000  *
  1031       C         61.36900000  *  144.72100000  * -49.88900000  *
  1032       H         60.76900000  *  144.86100000  * -48.99200000  *
  1033       H         60.74400000  *  144.79800000  * -50.77200000  *
  1034       C         62.03600000  *  143.32400000  * -49.85900000  *
  1035       H         62.67100000  *  143.24000000  * -48.98800000  *
  1036       C         61.00200000  *  142.26000000  * -49.77100000  *
  1037       H         60.24600000  *  142.42800000  * -50.53400000  *
  1038       H         61.44700000  *  141.27100000  * -49.89000000  *
  1039       H         60.52000000  *  142.31900000  * -48.79800000  *
  1040       C         62.89500000  *  143.12600000  * -51.08400000  *
  1041       H         63.82900000  *  143.66800000  * -50.95600000  *
  1042       H         63.12900000  *  142.06900000  * -51.20900000  *
  1043       H         62.39300000  *  143.49200000  * -51.96600000  *
  1044       C         61.76300000  *  147.21800000  * -49.95200000  *
  1045       O         61.15000000  *  147.60200000  * -48.96600000  *
  1046       N         61.89600000  *  147.98600000  * -51.02700000  *
  1047       H         62.39000000  *  147.61400000  * -51.83300000  *
  1048       C         61.43900000  *  149.37500000  * -51.06500000  *
  1049       H         61.05800000  *  149.67900000  * -50.09200000  *
  1050       C         62.59700000  *  150.29800000  * -51.42200000  *
  1051       H         62.92900000  *  150.06600000  * -52.43500000  *
  1052       H         62.21700000  *  151.31700000  * -51.40100000  *
  1053       C         63.79600000  *  150.19500000  * -50.47800000  *
  1054       H         64.24500000  *  149.20700000  * -50.55500000  *
  1055       C         64.79900000  *  151.23700000  * -50.93200000  *
  1056       H         64.42900000  *  152.22600000  * -50.67700000  *
  1057       H         65.75000000  *  151.04600000  * -50.44700000  *
  1058       H         64.94400000  *  151.19600000  * -52.00600000  *
  1059       C         63.44500000  *  150.46900000  * -49.01700000  *
  1060       H         62.83400000  *  149.65600000  * -48.63700000  *
  1061       H         64.35000000  *  150.51300000  * -48.41700000  *
  1062       H         62.90000000  *  151.40900000  * -48.92600000  *
  1063       C         60.31400000  *  149.55200000  * -52.06200000  *
  1064       O         60.40600000  *  149.08700000  * -53.18500000  *
  1065       N         59.26800000  *  150.25600000  * -51.67700000  *
  1066       H         59.36500000  *  150.76300000  * -50.80000000  *
  1067       C         58.08300000  *  150.44700000  * -52.50800000  *
  1068       H         58.17300000  *  149.92400000  * -53.45700000  *
  1069       C         56.81900000  *  149.90600000  * -51.78600000  *
  1070       H         55.94300000  *  150.08700000  * -52.41500000  *
  1071       C         56.95000000  *  148.40400000  * -51.54300000  *
  1072       H         57.75300000  *  148.18300000  * -50.83300000  *
  1073       H         56.01300000  *  148.00400000  * -51.15200000  *
  1074       H         57.15800000  *  147.91500000  * -52.48900000  *
  1075       C         56.64700000  *  150.60600000  * -50.43300000  *
  1076       H         57.48200000  *  150.38000000  * -49.77500000  *
  1077       H         56.60500000  *  151.68300000  * -50.57600000  *
  1078       C         55.37000000  *  150.22200000  * -49.68600000  *
  1079       H         55.48900000  *  149.24800000  * -49.22200000  *
  1080       H         55.17000000  *  150.96500000  * -48.91000000  *
  1081       H         54.52900000  *  150.16800000  * -50.38500000  *
  1082       C         57.87200000  *  151.93000000  * -52.81700000  *
  1083       O         58.38200000  *  152.79400000  * -52.10000000  *
  1084       N         57.14900000  *  152.22000000  * -53.89700000  *
  1085       H         56.70500000  *  151.48200000  * -54.43300000  *
  1086       C         56.84100000  *  153.60200000  * -54.22700000  *
  1087       H         57.16800000  *  154.27800000  * -53.43100000  *
  1088       C         57.50400000  *  154.05300000  * -55.54100000  *
  1089       H         57.21800000  *  155.07000000  * -55.80500000  *
  1090       H         58.58200000  *  154.04400000  * -55.38800000  *
  1091       C         57.19300000  *  153.14600000  * -56.70100000  *
  1092       O         56.13500000  *  152.53500000  * -56.76400000  *
  1093       N         58.11500000  *  153.07200000  * -57.64100000  *
  1094       H         57.83300000  *  152.61700000  * -58.48600000  *
  1095       H         58.88600000  *  153.71500000  * -57.62100000  *
  1096       C         55.33100000  *  153.75800000  * -54.32100000  *
  1097       O         54.57600000  *  152.79900000  * -54.11400000  *
  1098       N         54.88500000  *  154.97100000  * -54.62100000  *
  1099       H         55.52100000  *  155.73600000  * -54.79200000  *
  1100       C         53.46400000  *  155.24700000  * -54.72300000  *
  1101       H         52.92700000  *  154.82600000  * -53.87200000  *
  1102       C         53.20900000  *  156.78000000  * -54.75500000  *
  1103       H         52.16900000  *  156.98000000  * -55.02600000  *
  1104       C         53.47800000  *  157.39700000  * -53.41000000  *
  1105       H         54.52100000  *  157.25500000  * -53.13000000  *
[...]
 1005  H   0.82954
 1006  C   1.06506   0.79587   0.73666   0.79860
 1007  O   1.87755   1.40624   1.58050   1.82852
 1008  N   1.52692   1.35083   1.41043   1.31143
 1009  H   0.65631
 1010  H   0.66454
 1011  C   1.08338   0.75777   0.78062   0.81412
 1012  O   1.88435   1.65894   1.31298   1.73638
 1013  N   1.55192   1.50709   1.20309   1.30119
 1014  H   0.66525
 1015  C   1.07280   0.94827   1.09422   0.81954
 1016  H   0.80270
 1017  C   1.07056   1.04825   1.08913   1.16628
 1018  H   0.83176
 1019  H   0.79660
 1020  C   1.05817   0.80615   0.76619   0.75499
 1021  O   1.87525   1.77249   1.40216   1.61869
 1022  N   1.53159   1.31077   1.19555   1.58651
 1023  H   0.66634
 1024  H   0.65403
 1025  C   1.08787   0.78540   0.71974   0.85301
 1026  O   1.87911   1.76812   1.61072   1.37875
 1027  N   1.54101   1.12620   1.66453   1.18333
 1028  H   0.65384
 1029  C   1.06990   0.96914   0.97972   0.97481
 1030  H   0.81080
 1031  C   1.06732   1.06451   0.99778   1.17282
 1032  H   0.83720
 1033  H   0.84813
 1034  C   1.04102   1.01198   0.94622   1.06225
 1035  H   0.85564
 1036  C   1.04921   1.12586   1.11846   1.17077
 1037  H   0.84488
 1038  H   0.84892
 1039  H   0.86567
 1040  C   1.05157   1.14155   1.17180   1.09915
 1041  H   0.84460
 1042  H   0.85763
 1043  H   0.84982
 1044  C   1.07671   0.74959   0.84268   0.75560
 1045  O   1.87198   1.53790   1.79712   1.44519
 1046  N   1.54601   1.55359   1.17262   1.24926
 1047  H   0.64535
 1048  C   1.06451   0.98811   0.82767   1.09979
 1049  H   0.81416
 1050  C   1.06435   1.02572   1.10478   1.12536
 1051  H   0.84599
 1052  H   0.84080
 1053  C   1.04791   0.97014   1.07053   0.96687
 1054  H   0.86549
 1055  C   1.05382   1.12803   1.12821   1.16440
 1056  H   0.84617
 1057  H   0.84864
 1058  H   0.85919
 1059  C   1.05449   1.17548   1.17575   1.04801
 1060  H   0.84116
 1061  H   0.85194
 1062  H   0.84733
 1063  C   1.07444   0.79894   0.74445   0.81758
 1064  O   1.86833   1.83037   1.62551   1.34279
 1065  N   1.54061   1.19391   1.46634   1.29595
 1066  H   0.64490
 1067  C   1.07610   0.88935   1.00730   1.04191
 1068  H   0.80957
 1069  C   1.06433   1.01520   0.99281   1.01973
 1070  H   0.85022
 1071  C   1.05464   1.18118   1.03420   1.17651
 1072  H   0.84338
 1073  H   0.84509
 1074  H   0.85321
 1075  C   1.05402   1.06973   1.12057   1.03118
 1076  H   0.84538
 1077  H   0.86068
 1078  C   1.05246   1.08947   1.15708   1.13164
 1079  H   0.84840
 1080  H   0.87842
 1081  H   0.84691
 1082  C   1.08620   0.74321   0.88772   0.74303
 1083  O   1.88693   1.56771   1.57590   1.55609
 1084  N   1.54294   1.50745   1.14400   1.33780
 1085  H   0.64351
 1086  C   1.06243   0.97202   0.88450   1.03759
 1087  H   0.80357
 1088  C   1.07258   1.18107   1.12812   1.02400
 1089  H   0.80915
 1090  H   0.80483
 1091  C   1.06089   0.76161   0.77059   0.82342
 1092  O   1.88012   1.35542   1.56909   1.83580
 1093  N   1.53417   1.29769   1.49500   1.27232
 1094  H   0.67167
 1095  H   0.66527
 1096  C   1.08295   0.88472   0.75931   0.71298
 1097  O   1.88775   1.65408   1.46843   1.58886
 1098  N   1.54011   1.14511   1.19757   1.67204
 1099  H   0.66323
 1100  C   1.08556   0.83732   1.05832   1.08262
 1101  H   0.80363
 1102  C   1.08429   0.99153   0.86673   0.88967
 1103  H   0.84668
 1104  C   1.05383   1.18408   1.18022   1.05444
 1105  H   0.84127
 1106  H   0.82422
 1107  H   0.82928
 1108  O   1.84876   1.59255   1.82304   1.34539
 1109  H   0.64242
 1110  C   1.07331   0.78888   0.75528   0.82406
 1111  O   1.87783   1.28000   1.68916   1.84889
 1112  N   1.53331   1.19342   1.53451   1.21096
 1113  H   0.66720
 1114  C   1.05709   1.15377   1.13342   0.89310
 1115  H   0.83541
 1116  H   0.83774
 1117  H   0.83541
 1118  H   0.83961
 1119  C   1.10507   0.75500   0.73545   0.91354
 1120  O   1.88314   1.71068   1.59666   1.48266
 1121  N   1.54488   1.42791   1.34576   1.20819
 1122  H   0.65359
 1123  C   1.08077   0.93093   1.08460   0.93146
 1124  H   0.80922
 1125  C   1.07313   1.07906   0.95371   0.98252
 1126  H   0.84404
 1127  C   1.05810   1.18712   1.08404   1.12931
 1128  H   0.84352
 1129  H   0.84844
 1130  H   0.85207
 1131  C   1.05414   1.07579   1.13462   1.01860
 1132  H   0.85365
 1133  H   0.85451
 1134  C   1.04918   1.14385   1.15092   1.09053
 1135  H   0.85000
 1136  H   0.85971
 1137  H   0.84948
 1138  C   1.07228   0.84170   0.73651   0.77761
 1139  O   1.87773   1.89045   1.52099   1.39084
 1140  N   1.54491   1.10282   1.52655   1.33561
 1141  H   0.63228
 1142  C   1.06987   0.84616   1.05363   1.03788
 1143  H   0.81796
 1144  C   1.06006   1.09266   1.04608   1.09603
 1145  H   0.83658
 1146  H   0.84642
 1147  C   1.05106   1.08563   1.04448   1.07791
 1148  H   0.85002
 1149  H   0.84475
 1150  C   1.05933   1.08202   1.05466   1.09820
 1151  H   0.84136
 1152  H   0.83222
 1153  C   1.07885   1.02185   0.99734   1.07417
 1154  H   0.81157
 1155  H   0.83356
 1156  N   1.45923   1.23087   1.22909   1.25634
 1157  H   0.69493
 1158  H   0.70028
 1159  H   0.68641
 1160  C   1.07831   0.77980   0.75049   0.82536
 1161  O   1.88108   1.77259   1.69324   1.29077
 1162  N   1.54484   1.32888   1.42521   1.23097
 1163  H   0.64035
 1164  C   1.07029   0.91888   0.95784   1.02911
 1165  H   0.83198
 1166  C   1.06277   1.10004   1.01940   1.13292
 1167  H   0.83526
 1168  H   0.84491
 1169  C   1.05373   1.07069   0.96104   0.96346
 1170  H   0.85963
 1171  C   1.06224   1.16616   1.13944   1.09225
 1172  H   0.85192
 1173  H   0.84914
 1174  H   0.85263
 1175  C   1.05739   1.18273   1.13703   1.08876
 1176  H   0.85355
 1177  H   0.84823
 1178  H   0.85427
 1179  C   1.08490   0.79130   0.79852   0.75876
 1180  O   1.88087   1.63429   1.59906   1.53741
 1181  N   1.54364   1.37028   1.43692   1.15941
 1182  H   0.64702
 1183  C   1.06729   0.91357   0.92773   1.05086
 1184  H   0.82765
 1185  C   1.05943   1.16378   1.08759   1.15265
 1186  H   0.82179
 1187  H   0.83310
 1188  H   0.82833
 1189  C   1.08799   0.78920   0.78324   0.74612
 1190  O   1.87319   1.84727   1.36428   1.58719
 1191  N   1.54618   1.16721   1.33107   1.48898
 1192  H   0.67282
 1193  C   1.07413   0.87771   1.08195   0.93518
 1194  H   0.81209
 1195  C   1.07897   1.13998   1.18792   1.00384
 1196  H   0.81103
 1197  H   0.82818
 1198  C   1.07282   0.74606   0.72778   0.69112
 1199  O   1.88626   1.77794   1.46641   1.60032
 1200  O   1.87291   1.70769   1.49989   1.79246
 1201  C   1.09074   0.81839   0.79667   0.74402
 1202  O   1.88715   1.27860   1.81498   1.56567
 1203  N   1.56709   1.29328   1.16790   1.54346
 1204  H   0.67852
 1205  C   1.07948   1.01983   0.91942   0.95299
 1206  H   0.83954
 1207  C   1.05567   1.07728   1.20264   0.96280
 1208  H   0.81365
 1209  H   0.82007
 1210  C   1.07480   0.97415   0.97749   0.97010
 1211  C   1.09008   1.04124   1.04167   1.01435
 1212  H   0.83965
 1213  C   1.08866   0.98535   1.06188   1.01048
 1214  H   0.84236
 1215  C   1.08747   1.05980   0.99189   1.03245
 1216  H   0.84784
 1217  C   1.08947   1.03719   1.03603   0.98905
 1218  H   0.83149
 1219  C   1.08720   0.98610   1.06403   1.02385
 1220  H   0.83792
 1221  C   1.08976   0.80299   0.77320   0.76299
 1222  O   1.88529   1.44421   1.55948   1.71412
 1223  N   1.53938   1.41487   1.43754   1.13653
 1224  H   0.68479
 1225  C   1.06832   0.98824   1.06813   0.98144
 1226  H   0.81588
 1227  H   0.80606
 1228  C   1.07976   0.82841   0.77865   0.70341
 1229  O   1.87704   1.84059   1.32385   1.60974
 1230  N   1.55909   1.30142   1.23393   1.44960
 1231  H   0.67450
 1232  C   1.07776   0.89833   1.03299   0.96967
 1233  H   0.83215
 1234  C   1.06796   1.11399   0.95057   1.17390
 1235  H   0.84101
 1236  H   0.82837
 1237  C   1.05191   1.03190   0.95966   1.01258
 1238  H   0.86207
 1239  C   1.05583   1.16917   1.06891   1.15949
 1240  H   0.85780
 1241  H   0.84216
 1242  H   0.86051
 1243  C   1.05563   1.17156   1.18957   1.04517
 1244  H   0.84117
 1245  H   0.84008
 1246  H   0.85813
 1247  C   1.09505   0.85788   0.76644   0.72757
 1248  O   1.88133   1.32400   1.78558   1.59274
 1249  N   1.58217   1.28181   1.23297   1.52147
 1250  H   0.66097
 1251  C   1.06869   0.96477   0.99759   0.95397
 1252  H   0.83600
 1253  C   1.05860   1.13939   1.09725   1.17435
 1254  H   0.84392
 1255  H   0.80971
 1256  H   0.81099
 1257  C   1.07569   0.83410   0.75246   0.78158
 1258  O   1.88397   1.49898   1.59904   1.64922
 1259  N   1.54300   1.31153   1.51239   1.14407
 1260  H   0.67642
 1261  C   1.06250   0.92400   1.14575   1.10581
 1262  H   0.82621
 1263  H   0.82964
 1264  H   0.83893
 1265  H   0.84133
 1266  C   1.10471   0.72493   0.79426   0.87705
 1267  O   1.88386   1.53301   1.36161   1.88309
 1268  N   1.54281   1.48742   1.35120   1.14847
 1269  H   0.67743
 1270  C   1.07278   1.11695   0.96753   0.82277
 1271  H   0.80267
 1272  C   1.05755   1.09014   1.02767   1.15050
 1273  H   0.83885
 1274  H   0.82098
 1275  C   1.06439   0.97783   0.95008   0.96840
 1276  C   1.08286   1.02029   0.99441   1.05930
 1277  H   0.83904
 1278  C   1.08237   1.04689   1.02713   0.99753
 1279  H   0.84420
 1280  C   1.08129   1.00682   1.05592   1.02624
 1281  H   0.84945
 1282  C   1.08068   1.02433   1.00385   1.05462
 1283  H   0.85514
 1284  C   1.08277   1.05903   1.02600   0.99581
 1285  H   0.84060
 1286  C   1.08003   0.76678   0.78608   0.79914
 1287  O   1.88371   1.53971   1.68104   1.53443
 1288  N   1.53630   1.17522   1.34739   1.43075
 1289  H   0.67319
 1290  C   1.05778   1.14257   0.97561   0.99869
 1291  H   0.81544
 1292  H   0.78925
 1293  C   1.07416   0.78887   0.75778   0.80184
 1294  O   1.88101   1.53928   1.38091   1.84088
 1295  N   1.53628   1.41106   1.37827   1.17765
 1296  H   0.65099
 1297  C   1.07413   1.00259   1.19818   0.87808
 1298  H   0.81294
 1299  H   0.79464
 1300  C   1.08218   0.77425   0.74492   0.80736
 1301  O   1.88287   1.52178   1.53260   1.73157
 1302  N   1.56478   1.44490   1.16605   1.26727
 1303  C   1.07082   1.06942   0.87087   1.05675
 1304  H   0.83620
 1305  H   0.84043
 1306  C   1.05710   1.04750   1.13560   1.05892
 1307  H   0.84545
 1308  H   0.80784
 1309  C   1.06100   1.08157   0.98345   1.17237
 1310  H   0.83540
 1311  H   0.81900
 1312  C   1.07352   1.05286   1.00111   0.86829
 1313  H   0.81310
 1314  C   1.08825   0.76377   0.76835   0.82882
 1315  O   1.88393   1.42700   1.43540   1.88343
 1316  N   1.54311   1.40336   1.48376   1.11756
 1317  H   0.64353
 1318  C   1.08223   1.04973   1.11425   0.89102
 1319  H   0.80068
 1320  H   0.78725
 1321  C   1.08830   0.82554   0.73026   0.77836
 1322  O   1.88491   1.70330   1.72961   1.32950
 1323  N   1.55116   1.23254   1.41120   1.34467
 1324  H   0.68850
 1325  C   1.07571   0.85975   1.06402   0.97858
 1326  H   0.82214
 1327  C   1.05961   1.16904   1.07544   0.97626
 1328  H   0.83486
 1329  H   0.83871
 1330  C   1.05818   1.13846   1.07483   1.02406
 1331  H   0.82465
 1332  H   0.87158
 1333  C   1.06375   1.08743   1.09997   0.78140
 1334  H   0.85050
 1335  H   0.81938
 1336  N   1.53282   1.62699   1.28989   1.09342
 1337  H   0.64882
 1338  C   0.97601   0.83629   0.80288   0.79449
 1339  N   1.50147   1.56333   1.25850   1.24812
 1340  H   0.67467
 1341  H   0.62635
 1342  N   1.50407   1.55700   1.35355   1.14116
 1343  H   0.64455
 1344  H   0.63718
 1345  C   1.08252   0.75746   0.77391   0.84365
 1346  O   1.88759   1.48124   1.64734   1.56813
 1347  N   1.54321   1.54491   1.19771   1.24129
 1348  H   0.67358
 1349  C   1.09006   0.99978   1.00973   0.91779
 1350  H   0.79840
 1351  C   1.08606   0.92892   0.92584   0.87523
 1352  H   0.84855
 1353  C   1.05835   1.09874   1.12886   1.20326
 1354  H   0.82598
 1355  H   0.83420
 1356  H   0.83107
 1357  O   1.84249   1.58448   1.64220   1.57256
 1358  H   0.62475
 1359  C   1.07900   0.80836   0.78917   0.75829
 1360  O   1.88636   1.54252   1.79550   1.37649
 1361  N   1.55289   1.32711   1.29611   1.37734
 1362  H   0.65183
 1363  C   1.07397   0.98905   0.92735   0.99338
 1364  H   0.81750
 1365  C   1.05775   1.09598   1.06831   1.08592
 1366  H   0.84124
 1367  H   0.82982
 1368  C   1.06122   0.97127   0.97502   1.05879
 1369  C   1.08304   0.97319   1.08034   0.99396
 1370  H   0.84420
 1371  C   1.08278   1.08126   0.99494   1.01103
 1372  H   0.80680
 1373  C   1.06602   0.82588   0.89570   0.91454
 1374  O   1.84135   1.46934   1.54052   1.69612
 1375  H   0.63902
 1376  C   1.07380   0.99049   1.09214   1.07004
 1377  H   0.84697
 1378  C   1.08148   1.06408   0.99858   0.99658
 1379  H   0.85885
 1380  C   1.08199   0.77633   0.73396   0.82109
 1381  O   1.88472   1.39073   1.55627   1.82947
 1382  N   1.55036   1.20071   1.60155   1.14805
 1383  H   0.66060
 1384  C   1.08718   1.11693   1.03482   0.83752
 1385  H   0.82139
 1386  C   1.08253   0.83230   0.89074   1.00020
 1387  H   0.86834
 1388  C   1.05717   1.09861   1.14101   1.18964
 1389  H   0.83103
 1390  H   0.84553
 1391  H   0.84164
 1392  O   1.84703   1.32387   1.76615   1.66686
 1393  H   0.61650
 1394  C   1.08209   0.82822   0.76381   0.79208
 1395  O   1.88733   1.29177   1.70633   1.67729
 1396  N   1.54294   1.22798   1.27096   1.47594
 1397  H   0.64945
 1398  C   1.07061   0.98391   1.04051   1.07616
 1399  H   0.84410
 1400  H   0.80871
 1401  C   1.07033   0.85081   0.72014   0.75160
 1402  O   1.88495   1.70092   1.45766   1.55963
 1403  N   1.55352   1.14743   1.51358   1.33246
 1404  H   0.67993
 1405  C   1.07064   0.82923   0.98736   1.12888
 1406  H   0.81453
 1407  C   1.05331   1.16401   0.98979   1.05230
 1408  H   0.83901
 1409  H   0.83638
 1410  C   1.05977   1.20516   1.01213   1.13832
 1411  H   0.84311
 1412  H   0.82629
 1413  C   1.06684   0.72319   0.72058   0.72843
 1414  O   1.88773   1.47185   1.82248   1.63583
 1415  O   1.88494   1.51849   1.58689   1.81461
 1416  C   1.08684   0.77112   0.86261   0.75468
 1417  O   1.88735   1.64830   1.65288   1.40925
 1418  N   1.54586   1.31037   1.19191   1.47864
 1419  H   0.65328
 1420  C   1.07213   1.06275   0.88125   1.00752
 1421  H   0.84368
 1422  C   1.05449   1.01865   1.03226   0.97093
 1423  H   0.83622
 1424  C   1.05592   1.17746   1.04877   1.19328
 1425  H   0.84541
 1426  H   0.83580
 1427  H   0.83797
 1428  C   1.05456   1.18135   1.16762   1.06144
 1429  H   0.84072
 1430  H   0.83979
 1431  H   0.85199
 1432  C   1.07571   0.77102   0.73156   0.84216
 1433  O   1.88366   1.36376   1.63744   1.76953
 1434  N   1.53828   1.27321   1.47278   1.21099
 1435  H   0.66892
 1436  C   1.07704   1.00713   1.05457   0.86811
 1437  H   0.82290
 1438  C   1.06066   1.02668   1.01609   0.97671
 1439  H   0.84048
 1440  C   1.05419   1.18421   1.09823   1.12134
 1441  H   0.84081
 1442  H   0.84085
 1443  H   0.85068
 1444  C   1.05739   1.18969   1.16677   1.05263
 1445  H   0.84621
 1446  H   0.83566
 1447  H   0.83869
 1448  C   1.08152   0.80660   0.78645   0.75133
 1449  O   1.88319   1.81141   1.47308   1.46020
 1450  N   1.53604   1.23693   1.43136   1.31662
 1451  H   0.66470
 1452  C   1.07957   0.90438   0.96823   1.14829
 1453  H   0.80514
 1454  C   1.07973   0.93523   0.82460   0.98307
 1455  H   0.86667
 1456  C   1.05746   1.09508   1.13585   1.19622
 1457  H   0.82485
 1458  H   0.82199
 1459  H   0.84137
 1460  O   1.84758   1.47776   1.49383   1.78187
 1461  H   0.64870
 1462  C   1.07073   0.75361   0.82649   0.79812
 1463  O   1.88054   1.50728   1.88264   1.36458
 1464  N   1.53715   1.55014   1.12174   1.29442
 1465  H   0.65704
 1466  C   1.05410   1.16780   0.87318   1.13587
 1467  H   0.83022
 1468  H   0.83674
 1469  H   0.85121
 1470  H   0.82726
 1471  C   1.10850   0.72195   0.77565   0.90301
 1472  O   1.87918   1.50021   1.39718   1.89102
 1473  N   1.54808   1.50773   1.35867   1.13689
 1474  H   0.67064
 1475  C   1.07820   1.08321   1.04085   0.80198
 1476  H   0.80365
 1477  C   1.05901   1.13419   0.99956   1.10166
 1478  H   0.81859
 1479  H   0.82214
 1480  C   1.06595   0.97592   0.99300   1.00555
 1481  C   1.08234   0.99072   1.02466   1.00447
 1482  H   0.83760
 1483  C   1.07637   1.10515   1.04981   1.06622
 1484  H   0.82032
 1485  C   1.07256   0.88645   0.88194   0.87959
 1486  O   1.83868   1.35508   1.61296   1.73274
 1487  H   0.61905
 1488  C   1.07842   0.98856   1.10009   1.09715
 1489  H   0.82129
 1490  C   1.08813   1.07850   0.97887   0.96902
 1491  H   0.83526
 1492  C   1.08085   0.79996   0.76892   0.79201
 1493  O   1.88631   1.81381   1.69952   1.28031
 1494  N   1.53470   1.25584   1.50889   1.18460
 1495  H   0.67095
 1496  C   1.06143   0.92032   1.08960   1.16683
 1497  H   0.83435
 1498  H   0.82969
 1499  H   0.83843
 1500  H   0.82486
 1501  C   1.10804   0.78633   0.88374   0.71616
 1502  O   1.88011   1.43049   1.87065   1.50911
 1503  N   1.55068   1.37512   1.18534   1.44525
 1504  H   0.64440
 1505  C   1.07867   0.96574   0.86325   1.12906
 1506  H   0.81497
 1507  C   1.05975   0.97987   0.99669   1.07643
 1508  H   0.84635
 1509  C   1.05207   1.15825   1.06261   1.17610
 1510  H   0.84448
 1511  H   0.84456
 1512  H   0.84172
 1513  C   1.04784   0.99993   1.12972   1.08494
 1514  H   0.86682
 1515  H   0.85353
 1516  C   1.04904   1.11601   1.12953   1.14947
 1517  H   0.85872
 1518  H   0.85747
 1519  H   0.84108
 1520  C   1.07241   0.85959   0.73798   0.75025
 1521  O   1.87627   1.57602   1.55603   1.67379
 1522  N   1.54217   1.18498   1.41741   1.37463
 1523  H   0.66202
 1524  C   1.07135   0.87895   1.16328   1.10827
 1525  H   0.84315
 1526  H   0.83224
 1527  H   0.83419
 1528  H   0.82767
 1529  C   1.10752   0.84811   0.73330   0.82095
 1530  O   1.88532   1.81644   1.62643   1.36684
 1531  N   1.53778   1.25348   1.40291   1.30523
 1532  H   0.64794
 1533  C   1.05916   0.89146   1.04099   1.02445
 1534  H   0.81939
 1535  C   1.06064   1.03212   1.11505   1.11408
 1536  H   0.82489
 1537  H   0.84744
 1538  C   1.04450   0.99037   0.96296   1.06047
 1539  H   0.87965
 1540  C   1.05447   1.16232   1.06825   1.18054
 1541  H   0.83889
 1542  H   0.84798
 1543  H   0.85383
 1544  C   1.05255   1.12355   1.17279   1.10791
 1545  H   0.85737
 1546  H   0.84696
 1547  H   0.84155
 1548  C   1.07844   0.72967   0.86435   0.77477
 1549  O   1.88173   1.57723   1.45168   1.73573
 1550  N   1.54011   1.57147   1.21318   1.19370
 1551  H   0.66035
 1552  C   1.07166   1.02194   0.93427   0.96029
 1553  H   0.81204
 1554  C   1.05665   1.17025   1.07924   0.99299
 1555  H   0.82466
 1556  H   0.82646
 1557  C   1.05680   1.12994   1.08842   1.03628
 1558  H   0.85356
 1559  H   0.82375
 1560  C   1.06367   1.15812   0.94506   0.90235
 1561  H   0.81564
 1562  H   0.83645
 1563  N   1.52413   1.16124   1.42465   1.39827
 1564  H   0.63937
 1565  C   0.99156   0.79147   0.81260   0.81870
 1566  N   1.51739   1.11701   1.46805   1.48671
 1567  H   0.65521
 1568  H   0.63903
 1569  N   1.50862   1.25117   1.39994   1.41130
 1570  H   0.64165
 1571  H   0.64059
 1572  C   1.08225   0.87362   0.77358   0.74774
 1573  O   1.88841   1.60467   1.59458   1.52033
 1574  N   1.53999   1.17423   1.27251   1.51861
 1575  H   0.65815
 1576  C   1.07420   0.85753   1.08580   1.03733
 1577  H   0.82102
 1578  C   1.06134   1.16347   1.09793   0.98451
 1579  H   0.84246
 1580  H   0.83907
 1581  C   1.04759   1.08161   0.95986   0.94844
 1582  H   0.86918
 1583  C   1.05591   1.17158   1.16295   1.07764
 1584  H   0.85394
 1585  H   0.86083
 1586  H   0.84727
 1587  C   1.05671   1.15713   1.09315   1.15815
 1588  H   0.84980
 1589  H   0.86055
 1590  H   0.84795
 1591  C   1.08314   0.71431   0.76146   0.70259
 1592  O   1.88391   1.46803   1.86970   1.62366
 1593  O   1.88756   1.54755   1.59451   1.80345

 **********************
 *                    *
 * JOB ENDED NORMALLY *
 *                    *
 **********************



 TOTAL JOB TIME:          1513.64 SECONDS

 == MOPAC DONE ==
