 *******************************************************************************
 **                                                                           **
 **                              MOPAC v23.2.2                                **
 **                                                                           **
 *******************************************************************************
 **          Digital Object Identifier (DOI): 10.5281/zenodo.6511958          **
 **    Visit the DOI location for information on how to cite this program.    **
 *******************************************************************************

                              PM7 CALCULATION RESULTS

 *******************************************************************************
 *  CALCULATION DONE: (MAX THREADS = 24)             Thu Jan 22 22:06:47 2026  *
 *  PM7        - The PM7 Hamiltonian to be used
 *
 *
 *
 *                 CHARGE ON SYSTEM = +2
 *
 *
 *
 *  EPS=78.4   - USE ANDREAS KLAMT'S COSMO IMPLICIT SOLVATION MODEL
 *  XYZ        - CARTESIAN COORDINATE SYSTEM TO BE USED
 *  1SCF       - DO 1 SCF AND THEN STOP 
 *  T=         - A TIME OF 172800.0 SECONDS REQUESTED
 *  DUMP=N     - RESTART FILE WRITTEN EVERY 7200.0 SECONDS REQUESTED
 *******************************************************************************
PM7 1SCF XYZ CHARGE=2 EPS=78.4


   ATOM   CHEMICAL          X               Y               Z
  NUMBER   SYMBOL      (ANGSTROMS)     (ANGSTROMS)     (ANGSTROMS)

     1       H         71.69100000  *  165.23700000  * -45.36000000  *
     2       C         70.72700000  *  165.64400000  * -45.02500000  *
     3       O         70.67100000  *  166.69300000  * -44.40000000  *
     4       N         69.64800000  *  164.94600000  * -45.35400000  *
     5       H         69.74300000  *  164.08600000  * -45.86500000  *
     6       C         68.31800000  *  165.37700000  * -44.95100000  *
     7       H         68.30400000  *  166.44500000  * -44.75000000  *
     8       C         67.27900000  *  165.08100000  * -46.05800000  *
     9       H         67.27200000  *  164.02200000  * -46.29800000  *
    10       C         65.89200000  *  165.46600000  * -45.59200000  *
    11       H         65.46400000  *  166.22900000  * -46.24500000  *
    12       H         65.23700000  *  164.60600000  * -45.62700000  *
    13       H         65.87600000  *  165.89500000  * -44.58400000  *
    14       C         67.63700000  *  165.85600000  * -47.31700000  *
    15       H         68.59400000  *  165.52900000  * -47.70800000  *
    16       H         66.87900000  *  165.66900000  * -48.07700000  *
    17       H         67.68800000  *  166.92100000  * -47.10100000  *
    18       C         67.91500000  *  164.66400000  * -43.65700000  *
    19       O         67.55300000  *  165.30600000  * -42.67600000  *
    20       N         67.98400000  *  163.33800000  * -43.65800000  *
    21       H         68.28400000  *  162.85200000  * -44.48600000  *
    22       C         67.62300000  *  162.54400000  * -42.48700000  *
    23       H         67.90600000  *  163.07600000  * -41.58100000  *
    24       C         66.12800000  *  162.23500000  * -42.45900000  *
    25       H         65.92600000  *  161.47400000  * -43.20900000  *
    26       H         65.88500000  *  161.80700000  * -41.48800000  *
    27       C         65.21300000  *  163.39800000  * -42.74000000  *
    28       H         65.33100000  *  164.15700000  * -41.96400000  *
    29       H         65.45900000  *  163.81400000  * -43.69700000  *
    30       C         63.76600000  *  162.97200000  * -42.82400000  *
    31       O         63.44700000  *  162.11400000  * -43.67900000  *
    32       O         62.94800000  *  163.49400000  * -42.03400000  *
    33       C         68.34700000  *  161.22200000  * -42.57700000  *
    34       O         68.73000000  *  160.78800000  * -43.66100000  *
    35       N         68.52400000  *  160.57500000  * -41.43500000  *
    36       H         68.03000000  *  160.89100000  * -40.60600000  *
    37       C         69.17300000  *  159.28200000  * -41.42100000  *
    38       H         69.95100000  *  159.22100000  * -42.17800000  *
    39       C         69.75600000  *  159.01000000  * -40.03200000  *
    40       H         70.21900000  *  159.94300000  * -39.71800000  *
    41       H         68.96300000  *  158.79100000  * -39.31600000  *
    42       C         70.79800000  *  157.89600000  * -39.98300000  *
    43       H         70.31100000  *  156.94100000  * -40.17400000  *
    44       H         71.53800000  *  158.07300000  * -40.76900000  *
    45       C         71.50100000  *  157.83200000  * -38.61800000  *
    46       H         70.74900000  *  157.59000000  * -37.86000000  *
    47       H         72.23100000  *  157.01800000  * -38.63800000  *
    48       C         72.18600000  *  159.16200000  * -38.26900000  *
    49       H         72.83200000  *  159.42500000  * -39.10900000  *
    50       H         71.41200000  *  159.93100000  * -38.15600000  *
    51       N         73.00000000  *  159.10500000  * -37.02500000  *
    52       H         73.70000000  *  158.37000000  * -37.07400000  *
    53       H         73.43800000  *  159.98800000  * -36.79300000  *
    54       H         72.39100000  *  158.85400000  * -36.25100000  *
    55       C         68.06200000  *  158.28700000  * -41.74800000  *
    56       O         67.16300000  *  158.08100000  * -40.94600000  *
    57       N         68.04700000  *  157.69800000  * -42.94700000  *
    58       H         68.85500000  *  157.81200000  * -43.54000000  *
    59       C         67.00300000  *  156.72900000  * -43.34700000  *
    60       H         66.03000000  *  157.22000000  * -43.28200000  *
    61       C         67.18800000  *  156.23700000  * -44.80100000  *
    62       H         68.23800000  *  155.99200000  * -44.95900000  *
    63       C         66.34800000  *  154.98100000  * -45.08000000  *
    64       H         65.31100000  *  155.14800000  * -44.78500000  *
    65       H         66.36700000  *  154.75100000  * -46.13400000  *
    66       H         66.74600000  *  154.11200000  * -44.55400000  *
    67       C         66.77500000  *  157.33900000  * -45.78800000  *
    68       H         65.68700000  *  157.42000000  * -45.81900000  *
    69       H         67.16300000  *  158.28000000  * -45.41400000  *
    70       C         67.30900000  *  157.12400000  * -47.21300000  *
    71       H         66.86800000  *  156.24000000  * -47.66300000  *
    72       H         67.05300000  *  157.97900000  * -47.83500000  *
    73       H         68.39100000  *  157.01300000  * -47.19600000  *
    74       C         66.96000000  *  155.53900000  * -42.38800000  *
    75       O         65.89700000  *  155.18600000  * -41.87300000  *
    76       N         68.11200000  *  154.89600000  * -42.19700000  *
    77       H         68.95700000  *  155.26800000  * -42.61400000  *
    78       C         68.17900000  *  153.58300000  * -41.57500000  *
    79       H         67.45900000  *  153.53000000  * -40.75700000  *
    80       H         67.91700000  *  152.82400000  * -42.31100000  *
    81       C         69.56000000  *  153.25800000  * -41.03200000  *
    82       O         70.59100000  *  153.55900000  * -41.64000000  *
    83       N         69.55700000  *  152.59600000  * -39.88200000  *
    84       H         68.66500000  *  152.39200000  * -39.45400000  *
    85       C         70.73800000  *  151.97700000  * -39.29900000  *
    86       H         71.59100000  *  152.63200000  * -39.47600000  *
    87       C         70.53400000  *  151.83700000  * -37.78100000  *
    88       H         69.65500000  *  151.22300000  * -37.58500000  *
    89       H         71.41000000  *  151.35000000  * -37.36500000  *
    90       C         70.38400000  *  153.20200000  * -37.08800000  *
    91       H         71.25000000  *  153.81800000  * -37.34400000  *
    92       H         69.49200000  *  153.70800000  * -37.46600000  *
    93       C         70.26700000  *  153.07300000  * -35.56000000  *
    94       O         69.40200000  *  152.31300000  * -35.06800000  *
    95       O         71.01700000  *  153.76800000  * -34.83600000  *
    96       C         70.98900000  *  150.64100000  * -40.02200000  *
    97       O         70.24500000  *  149.67400000  * -39.84100000  *
    98       N         71.94100000  *  150.64100000  * -40.96000000  *
    99       H         72.56100000  *  151.43800000  * -41.02500000  *
   100       C         71.99200000  *  149.67800000  * -42.06500000  *
   101       H         70.97300000  *  149.43900000  * -42.37300000  *
   102       H         72.48100000  *  150.16800000  * -42.90700000  *
   103       C         72.72600000  *  148.35900000  * -41.79500000  *
   104       O         73.10700000  *  148.02400000  * -40.67400000  *
   105       N         72.94200000  *  147.60000000  * -42.87200000  *
   106       H         72.57300000  *  147.91000000  * -43.76000000  *
   107       C         73.67400000  *  146.31700000  * -42.89600000  *
   108       H         73.36300000  *  145.71600000  * -42.04100000  *
   109       C         73.34100000  *  145.53300000  * -44.17700000  *
   110       H         74.06700000  *  144.73300000  * -44.32200000  *
   111       C         71.95000000  *  144.91800000  * -44.07800000  *
   112       H         71.19300000  *  145.69900000  * -43.99800000  *
   113       H         71.75900000  *  144.30900000  * -44.96100000  *
   114       H         71.91900000  *  144.27300000  * -43.20100000  *
   115       O         73.36800000  *  146.40000000  * -45.28800000  *
   116       H         73.03900000  *  145.88300000  * -46.06200000  *
   117       C         75.19000000  *  146.46400000  * -42.79900000  *
   118       O         75.81300000  *  145.66900000  * -42.10600000  *
   119       N         75.77200000  *  147.47400000  * -43.45900000  *
   120       H         75.17100000  *  148.01700000  * -44.05800000  *
   121       C         77.22900000  *  147.69500000  * -43.57100000  *
   122       H         77.74200000  *  147.09400000  * -42.82000000  *
   123       C         77.70800000  *  147.22500000  * -44.95800000  *
   124       H         77.30700000  *  147.90100000  * -45.71400000  *
   125       H         78.79600000  *  147.29700000  * -45.00100000  *
   126       C         77.33400000  *  145.80000000  * -45.31600000  *
   127       C         77.73200000  *  144.75000000  * -44.47000000  *
   128       H         78.29800000  *  144.95700000  * -43.57100000  *
   129       C         77.38100000  *  143.42800000  * -44.78300000  *
   130       H         77.67300000  *  142.63000000  * -44.12100000  *
   131       C         76.65600000  *  143.14400000  * -45.95800000  *
   132       O         76.39800000  *  141.85200000  * -46.28700000  *
   133       H         77.05000000  *  141.28200000  * -45.85100000  *
   134       C         76.24300000  *  144.19700000  * -46.79900000  *
   135       H         75.66600000  *  143.98700000  * -47.68500000  *
   136       C         76.58700000  *  145.52400000  * -46.47900000  *
   137       H         76.27800000  *  146.32800000  * -47.13000000  *
   138       C         77.66200000  *  149.15200000  * -43.32000000  *
   139       O         78.77000000  *  149.54400000  * -43.68500000  *
   140       N         76.79300000  *  149.96600000  * -42.71600000  *
   141       H         75.91300000  *  149.58900000  * -42.39700000  *
   142       C         77.02200000  *  151.39000000  * -42.46800000  *
   143       H         77.61300000  *  151.51400000  * -41.56200000  *
   144       H         77.58600000  *  151.80500000  * -43.29200000  *
   145       C         75.71200000  *  152.16500000  * -42.30700000  *
   146       O         74.66500000  *  151.56200000  * -42.05700000  *
   147       N         75.75500000  *  153.49500000  * -42.44900000  *
   148       H         76.58800000  *  153.89400000  * -42.85900000  *
   149       C         74.59200000  *  154.32600000  * -42.21200000  *
   150       H         73.82600000  *  153.78000000  * -41.65800000  *
   151       C         74.95900000  *  155.54800000  * -41.37000000  *
   152       H         75.70700000  *  156.13900000  * -41.89300000  *
   153       C         73.73100000  *  156.40900000  * -41.13300000  *
   154       H         72.94300000  *  155.80300000  * -40.68200000  *
   155       H         73.98600000  *  157.21200000  * -40.45000000  *
   156       H         73.36800000  *  156.84900000  * -42.06500000  *
   157       C         75.54500000  *  155.09600000  * -40.05300000  *
   158       H         76.46000000  *  154.52800000  * -40.19800000  *
   159       H         75.77700000  *  155.95300000  * -39.42300000  *
   160       H         74.80500000  *  154.48400000  * -39.53200000  *
   161       C         74.01900000  *  154.79200000  * -43.53700000  *
   162       O         74.76100000  *  155.18400000  * -44.43700000  *
   163       N         72.69800000  *  154.64600000  * -43.68300000  *
   164       H         72.16600000  *  154.28900000  * -42.89600000  *
   165       C         71.92000000  *  155.08900000  * -44.84800000  *
   166       H         72.58500000  *  155.15900000  * -45.70600000  *
   167       C         70.79100000  *  154.09300000  * -45.20300000  *
   168       H         69.95800000  *  154.22700000  * -44.51300000  *
   169       C         70.28800000  *  154.36200000  * -46.62600000  *
   170       H         71.08500000  *  154.18800000  * -47.34900000  *
   171       H         69.45400000  *  153.69700000  * -46.85300000  *
   172       H         69.94600000  *  155.39100000  * -46.72000000  *
   173       C         71.22200000  *  152.62300000  * -45.11500000  *
   174       H         71.41500000  *  152.35300000  * -44.07600000  *
   175       H         70.42100000  *  151.98200000  * -45.48500000  *
   176       H         72.12000000  *  152.46200000  * -45.70400000  *
   177       C         71.33000000  *  156.47100000  * -44.56300000  *
   178       O         70.56700000  *  156.60500000  * -43.60400000  *
   179       N         71.62500000  *  157.49000000  * -45.37400000  *
   180       H         72.23900000  *  157.32200000  * -46.16900000  *
   181       C         71.01800000  *  158.79600000  * -45.21900000  *
   182       H         70.37900000  *  158.84300000  * -44.33800000  *
   183       C         72.10000000  *  159.86100000  * -45.06900000  *
   184       H         72.79900000  *  159.78100000  * -45.90500000  *
   185       H         71.63400000  *  160.84400000  * -45.14300000  *
   186       C         72.87100000  *  159.84300000  * -43.76800000  *
   187       C         72.34700000  *  160.43100000  * -42.61900000  *
   188       H         71.37700000  *  160.90600000  * -42.66800000  *
   189       C         73.06400000  *  160.45200000  * -41.42500000  *
   190       H         72.63300000  *  160.94600000  * -40.56800000  *
   191       C         74.33000000  *  159.87400000  * -41.37100000  *
   192       O         75.04700000  *  159.90100000  * -40.18700000  *
   193       H         74.69700000  *  160.54100000  * -39.56800000  *
   194       C         74.87500000  *  159.27800000  * -42.50300000  *
   195       H         75.78500000  *  158.71900000  * -42.41900000  *
   196       C         74.14000000  *  159.26700000  * -43.69600000  *
   197       H         74.51800000  *  158.73300000  * -44.56500000  *
   198       C         70.16700000  *  159.17400000  * -46.42900000  *
   199       O         70.41800000  *  158.72400000  * -47.55600000  *
   200       N         69.03300000  *  159.84000000  * -46.21200000  *
   201       H         68.84800000  *  160.14500000  * -45.26300000  *
   202       C         68.29600000  *  160.51900000  * -47.27800000  *
   203       H         68.28200000  *  159.91800000  * -48.18900000  *
   204       C         66.85500000  *  160.85400000  * -46.84000000  *
   205       H         66.33200000  *  159.93800000  * -46.57700000  *
   206       H         66.87900000  *  161.49300000  * -45.95500000  *
   207       C         66.04700000  *  161.54600000  * -47.95000000  *
   208       H         66.52300000  *  162.48900000  * -48.22200000  *
   209       H         66.02200000  *  160.90000000  * -48.82800000  *
   210       C         64.61100000  *  161.82500000  * -47.47600000  *
   211       H         64.15100000  *  160.89200000  * -47.14800000  *
   212       H         64.64400000  *  162.51400000  * -46.63100000  *
   213       C         63.77400000  *  162.43300000  * -48.61000000  *
   214       H         64.29900000  *  163.30900000  * -49.00300000  *
   215       H         63.69700000  *  161.69500000  * -49.41600000  *
   216       N         62.41600000  *  162.82600000  * -48.14500000  *
   217       H         62.46400000  *  163.52900000  * -47.42100000  *
   218       H         61.86900000  *  163.21700000  * -48.90100000  *
   219       H         61.90600000  *  162.03800000  * -47.77300000  *
   220       C         69.10600000  *  161.76900000  * -47.50800000  *
   221       O         69.34200000  *  162.50200000  * -46.55100000  *
   222       N         69.55500000  *  162.00600000  * -48.72500000  *
   223       H         69.34400000  *  161.34200000  * -49.46700000  *
   224       C         70.34900000  *  163.18200000  * -49.01700000  *
   225       H         70.22500000  *  163.93500000  * -48.24000000  *
   226       C         71.81400000  *  162.79200000  * -49.07000000  *
   227       H         71.97800000  *  162.06700000  * -49.86400000  *
   228       H         72.42900000  *  163.67700000  * -49.23900000  *
   229       H         72.10500000  *  162.33200000  * -48.12600000  *
   230       C         69.94400000  *  163.83800000  * -50.32200000  *
   231       O         69.22100000  *  163.25100000  * -51.12800000  *
   232       N         70.40700000  *  165.06400000  * -50.52400000  *
   233       H         70.93200000  *  165.53000000  * -49.79600000  *
   234       C         70.10800000  *  165.77900000  * -51.74600000  *
   235       H         69.54100000  *  165.15900000  * -52.44400000  *
   236       H         69.52200000  *  166.69100000  * -51.53000000  *
   237       H         71.05900000  *  166.04700000  * -52.23900000  *
   238       H         68.08600000  *  164.80700000  * -56.55000000  *
   239       C         68.21200000  *  164.39600000  * -55.53600000  *
   240       O         69.28600000  *  164.50800000  * -54.94200000  *
   241       N         67.13500000  *  163.82300000  * -55.01100000  *
   242       H         66.34000000  *  163.66800000  * -55.61500000  *
   243       C         67.13600000  *  163.21200000  * -53.68800000  *
   244       H         67.86300000  *  163.70700000  * -53.05000000  *
   245       C         65.75500000  *  163.32300000  * -53.02900000  *
   246       H         64.97700000  *  163.06900000  * -53.75000000  *
   247       C         65.64800000  *  162.36600000  * -51.85200000  *
   248       H         66.47200000  *  162.51800000  * -51.15200000  *
   249       H         64.69700000  *  162.53800000  * -51.34700000  *
   250       H         65.65200000  *  161.33900000  * -52.20000000  *
   251       C         65.54000000  *  164.75000000  * -52.56600000  *
   252       H         65.62600000  *  165.42400000  * -53.41600000  *
   253       H         64.53500000  *  164.85100000  * -52.15900000  *
   254       H         66.28400000  *  165.00300000  * -51.81000000  *
   255       C         67.52600000  *  161.76000000  * -53.84700000  *
   256       O         66.97900000  *  161.02800000  * -54.68200000  *
   257       N         68.49600000  *  161.34900000  * -53.04800000  *
   258       H         68.91100000  *  161.99700000  * -52.39100000  *
   259       C         69.01100000  *  159.99200000  * -53.10200000  *
   260       H         68.34600000  *  159.34100000  * -53.67900000  *
   261       C         70.37400000  *  159.97400000  * -53.81600000  *
   262       H         70.77500000  *  158.96500000  * -53.87500000  *
   263       C         70.21400000  *  160.50700000  * -55.21300000  *
   264       H         69.95700000  *  161.56600000  * -55.19000000  *
   265       H         71.15100000  *  160.39100000  * -55.75600000  *
   266       H         69.44200000  *  159.95000000  * -55.73600000  *
   267       C         71.37900000  *  160.85000000  * -53.05700000  *
   268       H         71.56500000  *  160.44500000  * -52.06400000  *
   269       H         72.31500000  *  160.84900000  * -53.61300000  *
   270       H         71.03600000  *  161.88400000  * -52.98400000  *
   271       C         69.19200000  *  159.37200000  * -51.72900000  *
   272       O         69.02000000  *  160.03600000  * -50.68600000  *
   273       N         69.38100000  *  158.05800000  * -51.70400000  *
   274       H         69.45800000  *  157.56400000  * -52.58800000  *
   275       C         69.75900000  *  157.32400000  * -50.51100000  *
   276       H         69.48300000  *  157.89100000  * -49.62300000  *
   277       C         68.99900000  *  156.00600000  * -50.46400000  *
   278       H         69.21300000  *  155.42900000  * -51.36100000  *
   279       H         69.29900000  *  155.43600000  * -49.58400000  *
   280       H         67.93100000  *  156.21300000  * -50.40900000  *
   281       C         71.27600000  *  157.14200000  * -50.53800000  *
   282       O         71.80900000  *  156.46200000  * -51.42100000  *
   283       N         71.97000000  *  157.79100000  * -49.60300000  *
   284       H         71.44500000  *  158.28300000  * -48.88900000  *
   285       C         73.41300000  *  157.73400000  * -49.53500000  *
   286       H         73.80300000  *  157.43200000  * -50.50200000  *
   287       C         73.96100000  *  159.11400000  * -49.18200000  *
   288       H         73.49200000  *  159.84000000  * -49.85100000  *
   289       H         73.62800000  *  159.35800000  * -48.16900000  *
   290       C         75.47300000  *  159.31600000  * -49.26600000  *
   291       H         75.96900000  *  158.63700000  * -48.57100000  *
   292       C         75.94900000  *  159.02000000  * -50.68400000  *
   293       H         75.44100000  *  159.71800000  * -51.34800000  *
   294       H         77.02400000  *  159.18800000  * -50.76300000  *
   295       H         75.74700000  *  157.98700000  * -50.96800000  *
   296       C         75.80400000  *  160.74000000  * -48.87900000  *
   297       H         75.43700000  *  160.94600000  * -47.87600000  *
   298       H         76.88200000  *  160.87900000  * -48.92200000  *
   299       H         75.32000000  *  161.42900000  * -49.57600000  *
   300       C         73.82100000  *  156.71600000  * -48.48500000  *
   301       O         73.39600000  *  156.78100000  * -47.33400000  *
   302       N         74.64900000  *  155.75500000  * -48.88700000  *
   303       H         74.89100000  *  155.73800000  * -49.87600000  *
   304       C         75.13400000  *  154.63800000  * -48.06700000  *
   305       H         74.60900000  *  154.61500000  * -47.11000000  *
   306       C         74.85400000  *  153.33600000  * -48.85200000  *
   307       H         74.33400000  *  153.57700000  * -49.78100000  *
   308       H         75.79100000  *  152.85600000  * -49.13300000  *
   309       C         73.98600000  *  152.30000000  * -48.13600000  *
   310       H         73.09800000  *  152.78600000  * -47.73500000  *
   311       H         73.65600000  *  151.59000000  * -48.89400000  *
   312       C         74.74500000  *  151.55600000  * -47.02200000  *
   313       H         75.78800000  *  151.40700000  * -47.30800000  *
   314       H         74.73200000  *  152.17100000  * -46.11800000  *
   315       C         74.10400000  *  150.18900000  * -46.72300000  *
   316       H         74.51800000  *  149.81500000  * -45.78100000  *
   317       H         73.02900000  *  150.34300000  * -46.56900000  *
   318       N         74.34600000  *  149.19900000  * -47.81900000  *
   319       H         75.32500000  *  148.95100000  * -47.90300000  *
   320       H         73.81400000  *  148.32700000  * -47.68400000  *
   321       H         74.03700000  *  149.55100000  * -48.71700000  *
   322       C         76.62500000  *  154.84500000  * -47.79700000  *
   323       O         77.42100000  *  154.67400000  * -48.71200000  *
   324       N         77.01700000  *  155.22600000  * -46.58100000  *
   325       H         76.29800000  *  155.26800000  * -45.86500000  *
   326       C         78.42200000  *  155.28900000  * -46.15900000  *
   327       H         79.06600000  *  155.59300000  * -46.98900000  *
   328       C         78.56700000  *  156.26000000  * -44.97900000  *
   329       H         78.02700000  *  155.87500000  * -44.10900000  *
   330       H         79.62500000  *  156.33900000  * -44.73000000  *
   331       C         78.01500000  *  157.64300000  * -45.34000000  *
   332       H         78.45100000  *  157.95800000  * -46.27300000  *
   333       H         76.93600000  *  157.57500000  * -45.50000000  *
   334       C         78.25100000  *  158.72500000  * -44.27900000  *
   335       H         77.97800000  *  159.68000000  * -44.73200000  *
   336       H         77.56000000  *  158.53300000  * -43.46900000  *
   337       C         79.67700000  *  158.85000000  * -43.70900000  *
   338       H         80.38400000  *  158.36300000  * -44.39700000  *
   339       H         79.95000000  *  159.91100000  * -43.68600000  *
   340       N         79.78800000  *  158.26900000  * -42.33500000  *
   341       H         79.63700000  *  157.26100000  * -42.37000000  *
   342       H         80.69600000  *  158.42600000  * -41.93200000  *
   343       H         79.10400000  *  158.64600000  * -41.70100000  *
   344       C         78.82300000  *  153.89100000  * -45.72900000  *
   345       O         78.09100000  *  153.31500000  * -44.93700000  *
   346       N         79.90700000  *  153.32000000  * -46.24700000  *
   347       H         80.40500000  *  153.76400000  * -47.01000000  *
   348       C         80.34300000  *  152.02200000  * -45.76800000  *
   349       H         79.49500000  *  151.49800000  * -45.35900000  *
   350       C         80.94400000  *  151.18600000  * -46.89500000  *
   351       H         81.78600000  *  151.78200000  * -47.16900000  *
   352       C         81.42400000  *  149.85200000  * -46.34500000  *
   353       H         80.65600000  *  149.35200000  * -45.75200000  *
   354       H         81.67900000  *  149.19900000  * -47.17900000  *
   355       H         82.34500000  *  149.95700000  * -45.76100000  *
   356       C         79.89700000  *  150.97600000  * -47.99700000  *
   357       H         79.60200000  *  151.87000000  * -48.50000000  *
   358       H         80.28300000  *  150.30500000  * -48.75000000  *
   359       C         78.59100000  *  150.36100000  * -47.52600000  *
   360       H         78.17700000  *  150.90100000  * -46.69000000  *
   361       H         77.89400000  *  150.33700000  * -48.36300000  *
   362       H         78.77100000  *  149.33300000  * -47.20900000  *
   363       C         81.33300000  *  152.07100000  * -44.61400000  *
   364       O         82.16700000  *  152.98000000  * -44.51900000  *
   365       N         81.21100000  *  151.07100000  * -43.74300000  *
   366       H         80.50300000  *  150.36100000  * -43.92800000  *
   367       C         82.04400000  *  150.90200000  * -42.55200000  *
   368       H         81.47500000  *  151.18100000  * -41.66300000  *
   369       H         82.35800000  *  149.86100000  * -42.45900000  *
   370       H         82.94700000  *  151.51400000  * -42.62000000  *
   371       H         81.25700000  *  144.04600000  * -57.89900000  *
   372       C         80.50000000  *  144.84100000  * -57.88800000  *
   373       O         79.71500000  *  144.99000000  * -58.82400000  *
   374       N         80.49900000  *  145.60300000  * -56.79700000  *
   375       H         81.28000000  *  145.52500000  * -56.16600000  *
   376       C         79.57000000  *  146.70600000  * -56.61200000  *
   377       H         78.57500000  *  146.34400000  * -56.42300000  *
   378       C         80.00500000  *  147.61000000  * -55.44200000  *
   379       H         80.89800000  *  148.18000000  * -55.68500000  *
   380       C         78.90600000  *  148.60800000  * -55.12500000  *
   381       H         77.92000000  *  148.14100000  * -55.17600000  *
   382       H         79.04500000  *  148.98700000  * -54.11600000  *
   383       H         78.93800000  *  149.43600000  * -55.83300000  *
   384       C         80.32100000  *  146.76200000  * -54.20900000  *
   385       H         81.19200000  *  146.13400000  * -54.40600000  *
   386       H         80.59400000  *  147.42200000  * -53.38900000  *
   387       C         79.18400000  *  145.87900000  * -53.76500000  *
   388       H         78.77800000  *  145.31100000  * -54.59400000  *
   389       H         79.50900000  *  145.12200000  * -53.06500000  *
   390       H         78.38800000  *  146.48300000  * -53.33500000  *
   391       C         79.54300000  *  147.54500000  * -57.87900000  *
   392       O         78.48200000  *  147.77900000  * -58.45100000  *
   393       N         80.72300000  *  147.98900000  * -58.30900000  *
   394       H         81.55800000  *  147.70100000  * -57.81200000  *
   395       C         80.85900000  *  148.80400000  * -59.51100000  *
   396       H         80.33900000  *  149.74600000  * -59.38600000  *
   397       H         81.92800000  *  148.98500000  * -59.72900000  *
   398       H         80.37800000  *  148.32200000  * -60.38100000  *
   399       H         78.96400000  *  146.08700000  * -61.65600000  *
   400       C         77.87300000  *  146.08700000  * -61.51600000  *
   401       O         77.11500000  *  145.89500000  * -62.46400000  *
   402       N         77.44600000  *  146.31800000  * -60.28000000  *
   403       H         78.13400000  *  146.42500000  * -59.54900000  *
   404       C         76.02800000  *  146.35200000  * -59.94500000  *
   405       H         75.53300000  *  145.47600000  * -60.35900000  *
   406       C         75.84100000  *  146.37400000  * -58.43100000  *
   407       H         76.20500000  *  147.30400000  * -58.01800000  *
   408       H         74.76300000  *  146.35700000  * -58.24200000  *
   409       C         76.47200000  *  145.22200000  * -57.65900000  *
   410       H         77.55000000  *  145.23900000  * -57.74900000  *
   411       C         76.08000000  *  145.34100000  * -56.19200000  *
   412       H         74.99900000  *  145.23000000  * -56.07700000  *
   413       H         76.57300000  *  144.55300000  * -55.62900000  *
   414       H         76.38500000  *  146.30900000  * -55.80100000  *
   415       C         75.99600000  *  143.89000000  * -58.23600000  *
   416       H         76.41500000  *  143.73000000  * -59.22900000  *
   417       H         76.32800000  *  143.07800000  * -57.59100000  *
   418       H         74.90500000  *  143.87400000  * -58.30500000  *
   419       C         75.32200000  *  147.55900000  * -60.54800000  *
   420       O         74.09500000  *  147.56800000  * -60.66200000  *
   421       N         76.08400000  *  148.63100000  * -60.82900000  *
   422       H         77.08200000  *  148.53500000  * -60.67700000  *
   423       C         75.60100000  *  149.83300000  * -61.53400000  *
   424       H         74.83700000  *  150.33500000  * -60.94100000  *
   425       H         76.43800000  *  150.53300000  * -61.75900000  *
   426       H         75.13800000  *  149.54900000  * -62.49200000  *
   427       H         62.79000000  *  145.77200000  * -59.27600000  *
   428       C         63.71000000  *  145.72000000  * -58.67500000  *
   429       O         63.77900000  *  145.02200000  * -57.66400000  *
   430       N         64.72400000  *  146.45200000  * -59.11400000  *
   431       H         64.63800000  *  147.05100000  * -59.92700000  *
   432       C         65.97100000  *  146.53500000  * -58.38100000  *
   433       H         65.88400000  *  146.09200000  * -57.38600000  *
   434       C         67.11600000  *  145.87700000  * -59.11400000  *
   435       H         67.33600000  *  146.42600000  * -60.03000000  *
   436       C         68.35100000  *  145.87800000  * -58.21400000  *
   437       H         68.14700000  *  145.31400000  * -57.31800000  *
   438       H         69.21000000  *  145.44500000  * -58.72400000  *
   439       H         68.64100000  *  146.89000000  * -57.94500000  *
   440       C         66.72800000  *  144.44400000  * -59.47800000  *
   441       H         66.54900000  *  143.87300000  * -58.56400000  *
   442       H         65.81500000  *  144.42400000  * -60.06800000  *
   443       C         67.77400000  *  143.72700000  * -60.29600000  *
   444       H         68.68300000  *  143.57700000  * -59.72200000  *
   445       H         67.37700000  *  142.75300000  * -60.59800000  *
   446       H         68.02300000  *  144.31300000  * -61.18000000  *
   447       C         66.29500000  *  148.01000000  * -58.22000000  *
   448       O         66.21200000  *  148.78000000  * -59.18400000  *
   449       N         66.54800000  *  148.43900000  * -56.98200000  *
   450       H         66.61600000  *  147.75600000  * -56.23100000  *
   451       C         66.89100000  *  149.83300000  * -56.68500000  *
   452       H         66.07700000  *  150.48200000  * -57.00800000  *
   453       C         67.10200000  *  150.02900000  * -55.17800000  *
   454       H         67.87800000  *  149.34600000  * -54.82900000  *
   455       C         67.52300000  *  151.45800000  * -54.83100000  *
   456       H         66.71600000  *  152.16000000  * -55.04300000  *
   457       H         67.77200000  *  151.49000000  * -53.77300000  *
   458       H         68.40600000  *  151.75300000  * -55.39300000  *
   459       C         65.80800000  *  149.73900000  * -54.41300000  *
   460       H         65.53400000  *  148.69200000  * -54.50200000  *
   461       H         65.96500000  *  149.96000000  * -53.36400000  *
   462       H         65.00000000  *  150.35600000  * -54.79900000  *
   463       C         68.15000000  *  150.21000000  * -57.46000000  *
   464       O         69.17700000  *  149.53500000  * -57.34500000  *
   465       N         68.08000000  *  151.28300000  * -58.25100000  *
   466       H         67.22500000  *  151.80400000  * -58.24500000  *
   467       C         69.18900000  *  151.69800000  * -59.08000000  *
   468       H         69.52500000  *  150.81900000  * -59.63900000  *
   469       C         68.73700000  *  152.76800000  * -60.08300000  *
   470       H         67.83400000  *  152.41100000  * -60.57900000  *
   471       H         68.47700000  *  153.68100000  * -59.53700000  *
   472       C         69.79100000  *  153.06900000  * -61.13100000  *
   473       H         70.72100000  *  153.35000000  * -60.64200000  *
   474       H         69.97400000  *  152.16800000  * -61.71600000  *
   475       C         69.35100000  *  154.17900000  * -62.08100000  *
   476       H         68.50200000  *  153.81400000  * -62.66100000  *
   477       H         69.02300000  *  155.05600000  * -61.52200000  *
   478       C         70.49800000  *  154.55900000  * -63.02400000  *
   479       H         71.33900000  *  154.89000000  * -62.40800000  *
   480       H         70.81900000  *  153.66100000  * -63.56600000  *
   481       N         70.11800000  *  155.62600000  * -63.99700000  *
   482       H         69.74700000  *  156.41600000  * -63.48300000  *
   483       H         70.92600000  *  155.93300000  * -64.52500000  *
   484       H         69.41500000  *  155.27800000  * -64.63600000  *
   485       C         70.36000000  *  152.21400000  * -58.25300000  *
   486       O         70.19400000  *  153.07400000  * -57.38700000  *
   487       N         71.53700000  *  151.64500000  * -58.50700000  *
   488       H         71.59600000  *  150.90400000  * -59.18600000  *
   489       C         72.75000000  *  152.07400000  * -57.83600000  *
   490       H         72.53800000  *  152.52600000  * -56.87100000  *
   491       C         73.72700000  *  150.91100000  * -57.67000000  *
   492       H         73.31500000  *  150.22100000  * -56.93700000  *
   493       H         73.77900000  *  150.36900000  * -58.62000000  *
   494       C         75.16700000  *  151.27300000  * -57.28800000  *
   495       H         75.65500000  *  151.80300000  * -58.10000000  *
   496       C         75.18300000  *  152.16500000  * -56.05900000  *
   497       H         74.60800000  *  151.72100000  * -55.25200000  *
   498       H         76.21000000  *  152.29600000  * -55.73500000  *
   499       H         74.78900000  *  153.14000000  * -56.31200000  *
   500       C         75.93300000  *  149.99400000  * -57.01300000  *
   501       H         75.98300000  *  149.42100000  * -57.93300000  *
   502       H         76.94600000  *  150.24200000  * -56.71200000  *
   503       H         75.43500000  *  149.41000000  * -56.23200000  *
   504       C         73.31900000  *  153.11300000  * -58.79500000  *
   505       O         73.76900000  *  152.77900000  * -59.89700000  *
   506       N         73.26700000  *  154.36900000  * -58.37800000  *
   507       H         72.92600000  *  154.57000000  * -57.44900000  *
   508       C         73.73400000  *  155.46600000  * -59.19700000  *
   509       H         73.47500000  *  155.26500000  * -60.23600000  *
   510       C         73.02500000  *  156.74200000  * -58.76000000  *
   511       H         73.45000000  *  157.06300000  * -57.80900000  *
   512       H         73.23600000  *  157.53300000  * -59.48700000  *
   513       C         71.51300000  *  156.60300000  * -58.58700000  *
   514       H         71.27400000  *  155.80900000  * -57.88500000  *
   515       C         70.97400000  *  157.88000000  * -58.01900000  *
   516       H         71.37000000  *  158.74600000  * -58.56000000  *
   517       H         69.88800000  *  157.89100000  * -58.09300000  *
   518       H         71.22100000  *  157.96000000  * -56.96600000  *
   519       C         70.85100000  *  156.29000000  * -59.92300000  *
   520       H         71.28300000  *  155.39700000  * -60.34200000  *
   521       H         69.78900000  *  156.14400000  * -59.75100000  *
   522       H         71.00300000  *  157.12700000  * -60.60700000  *
   523       C         75.24500000  *  155.67800000  * -59.15800000  *
   524       O         75.83900000  *  156.04700000  * -60.17600000  *
   525       N         75.86200000  *  155.44600000  * -57.99600000  *
   526       H         75.29500000  *  155.17900000  * -57.20400000  *
   527       C         77.30800000  *  155.64700000  * -57.82900000  *
   528       H         77.80800000  *  155.40400000  * -58.76600000  *
   529       C         77.60000000  *  157.11700000  * -57.51900000  *
   530       H         76.91700000  *  157.54400000  * -56.80300000  *
   531       H         78.58200000  *  157.17000000  * -57.04800000  *
   532       C         77.65600000  *  157.97500000  * -58.75600000  *
   533       O         78.67800000  *  157.91700000  * -59.48300000  *
   534       O         76.67400000  *  158.70400000  * -59.00000000  *
   535       C         77.97900000  *  154.81700000  * -56.73400000  *
   536       O         77.37100000  *  154.52100000  * -55.70400000  *
   537       N         79.24700000  *  154.47700000  * -56.96600000  *
   538       H         79.69800000  *  154.82400000  * -57.79800000  *
   539       C         80.06100000  *  153.73800000  * -56.00300000  *
   540       H         79.55400000  *  153.69900000  * -55.05200000  *
   541       C         80.36600000  *  152.29800000  * -56.50400000  *
   542       H         79.42700000  *  151.75200000  * -56.56200000  *
   543       C         80.98100000  *  152.34300000  * -57.88400000  *
   544       H         82.06600000  *  152.43300000  * -57.82100000  *
   545       H         80.74600000  *  151.41400000  * -58.37900000  *
   546       H         80.59600000  *  153.14500000  * -58.51000000  *
   547       C         81.29900000  *  151.58800000  * -55.53900000  *
   548       H         80.81100000  *  151.54900000  * -54.57200000  *
   549       H         81.47300000  *  150.57200000  * -55.87800000  *
   550       H         82.25900000  *  152.09200000  * -55.44900000  *
   551       C         81.36500000  *  154.53600000  * -55.81000000  *
   552       O         82.27000000  *  154.48900000  * -56.64700000  *
   553       N         81.45200000  *  155.28200000  * -54.71000000  *
   554       H         80.67600000  *  155.30400000  * -54.06400000  *
   555       C         82.62100000  *  156.11100000  * -54.44300000  *
   556       H         83.20500000  *  156.21800000  * -55.35800000  *
   557       H         82.32200000  *  157.12800000  * -54.14500000  *
   558       H         83.29700000  *  155.73900000  * -53.65600000  *
   559       H         84.58000000  *  155.17100000  * -47.07300000  *
   560       C         84.22500000  *  154.98400000  * -48.09100000  *
   561       O         84.63900000  *  155.65900000  * -49.04200000  *
   562       N         83.35800000  *  153.99100000  * -48.22200000  *
   563       H         83.13600000  *  153.42800000  * -47.41700000  *
   564       C         82.77600000  *  153.65100000  * -49.50600000  *
   565       H         83.37000000  *  154.04700000  * -50.31700000  *
   566       C         82.71900000  *  152.14000000  * -49.66000000  *
   567       H         83.74000000  *  151.87500000  * -49.95700000  *
   568       H         82.64400000  *  151.54600000  * -48.78400000  *
   569       C         81.82600000  *  151.61900000  * -50.77900000  *
   570       H         80.79100000  *  151.88400000  * -50.58700000  *
   571       C         82.25800000  *  152.23100000  * -52.09200000  *
   572       H         83.31100000  *  152.49100000  * -52.08900000  *
   573       H         82.09300000  *  151.51300000  * -52.88400000  *
   574       H         81.65400000  *  153.10900000  * -52.31200000  *
   575       C         81.89900000  *  150.09400000  * -50.82200000  *
   576       H         81.91300000  *  149.66400000  * -49.82700000  *
   577       H         81.05200000  *  149.70600000  * -51.39100000  *
   578       H         82.82500000  *  149.80300000  * -51.32100000  *
   579       C         81.36700000  *  154.23200000  * -49.54800000  *
   580       O         80.51800000  *  153.85700000  * -48.74500000  *
   581       N         81.13100000  *  155.16100000  * -50.46700000  *
   582       H         81.84500000  *  155.34800000  * -51.16200000  *
   583       C         79.82200000  *  155.78100000  * -50.60800000  *
   584       H         79.27400000  *  155.67000000  * -49.68700000  *
   585       C         79.96700000  *  157.27800000  * -50.86800000  *
   586       H         80.42300000  *  157.50400000  * -51.79700000  *
   587       H         78.95400000  *  157.66400000  * -50.98900000  *
   588       C         80.57600000  *  158.04300000  * -49.72300000  *
   589       C         79.79300000  *  158.48000000  * -48.65600000  *
   590       H         78.73500000  *  158.25400000  * -48.66900000  *
   591       C         80.35600000  *  159.18600000  * -47.59400000  *
   592       H         79.75300000  *  159.56200000  * -46.79700000  *
   593       C         81.71600000  *  159.45200000  * -47.58700000  *
   594       O         82.27600000  *  160.12500000  * -46.52100000  *
   595       H         83.20600000  *  160.30800000  * -46.74500000  *
   596       C         82.51400000  *  159.02600000  * -48.63700000  *
   597       H         83.58200000  *  159.23300000  * -48.65000000  *
   598       C         81.94100000  *  158.32800000  * -49.69800000  *
   599       H         82.57400000  *  157.98100000  * -50.50200000  *
   600       C         79.04800000  *  155.15800000  * -51.76500000  *
   601       O         79.54400000  *  155.08000000  * -52.88800000  *
   602       N         77.86400000  *  154.61900000  * -51.49500000  *
   603       H         77.53700000  *  154.64100000  * -50.53500000  *
   604       C         76.98400000  *  154.05500000  * -52.51700000  *
   605       H         77.50900000  *  154.00800000  * -53.46400000  *
   606       C         76.55000000  *  152.62100000  * -52.17000000  *
   607       H         75.86200000  *  152.66000000  * -51.33400000  *
   608       H         76.00300000  *  152.22300000  * -53.02600000  *
   609       C         77.68500000  *  151.64600000  * -51.81600000  *
   610       H         78.19100000  *  151.98000000  * -50.91000000  *
   611       C         77.11700000  *  150.25000000  * -51.56700000  *
   612       H         76.63700000  *  149.87300000  * -52.47100000  *
   613       H         77.92100000  *  149.57100000  * -51.27900000  *
   614       H         76.38700000  *  150.28900000  * -50.76000000  *
   615       C         78.70200000  *  151.53900000  * -52.94500000  *
   616       H         79.22100000  *  152.48700000  * -53.06100000  *
   617       H         79.43800000  *  150.77600000  * -52.70100000  *
   618       H         78.19800000  *  151.28400000  * -53.87800000  *
   619       C         75.78900000  *  154.98600000  * -52.67300000  *
   620       O         75.10800000  *  155.26400000  * -51.68200000  *
   621       N         75.54700000  *  155.50800000  * -53.87800000  *
   622       H         76.14500000  *  155.25500000  * -54.66000000  *
   623       C         74.40900000  *  156.37500000  * -54.09400000  *
   624       H         73.97600000  *  156.70200000  * -53.15000000  *
   625       C         74.83400000  *  157.63700000  * -54.81800000  *
   626       H         75.25500000  *  157.34500000  * -55.76600000  *
   627       C         73.61400000  *  158.52200000  * -55.10900000  *
   628       H         73.11700000  *  158.76900000  * -54.17500000  *
   629       H         73.94100000  *  159.43100000  * -55.61500000  *
   630       H         72.91600000  *  158.00900000  * -55.76200000  *
   631       C         75.84000000  *  158.38200000  * -53.94900000  *
   632       H         75.28100000  *  158.78400000  * -53.13000000  *
   633       H         76.65600000  *  157.75800000  * -53.60500000  *
   634       H         76.26100000  *  159.20400000  * -54.52500000  *
   635       C         73.31400000  *  155.64400000  * -54.85300000  *
   636       O         73.49500000  *  155.22100000  * -55.99400000  *
   637       N         72.19800000  *  155.40300000  * -54.16900000  *
   638       H         72.12800000  *  155.75600000  * -53.21900000  *
   639       C         71.01800000  *  154.74000000  * -54.71500000  *
   640       H         71.27300000  *  154.27100000  * -55.66100000  *
   641       C         70.54600000  *  153.64900000  * -53.74900000  *
   642       H         70.37200000  *  154.09600000  * -52.77100000  *
   643       H         69.58800000  *  153.27300000  * -54.10300000  *
   644       C         71.49000000  *  152.47300000  * -53.58900000  *
   645       C         71.40600000  *  151.37600000  * -54.46800000  *
   646       H         70.69300000  *  151.38200000  * -55.27900000  *
   647       C         72.24100000  *  150.25900000  * -54.28900000  *
   648       H         72.16500000  *  149.41200000  * -54.95900000  *
   649       C         73.17100000  *  150.23800000  * -53.23600000  *
   650       H         73.81400000  *  149.37900000  * -53.09900000  *
   651       C         73.26200000  *  151.33500000  * -52.36100000  *
   652       H         73.96800000  *  151.31300000  * -51.54600000  *
   653       C         72.42800000  *  152.45400000  * -52.53900000  *
   654       H         72.49900000  *  153.29400000  * -51.86000000  *
   655       C         69.89300000  *  155.74900000  * -54.96600000  *
   656       O         69.74400000  *  156.71800000  * -54.22100000  *
   657       N         69.08100000  *  155.53000000  * -56.00300000  *
   658       H         69.24400000  *  154.70600000  * -56.57300000  *
   659       C         67.82100000  *  156.27300000  * -56.17500000  *
   660       H         68.06700000  *  157.32100000  * -56.35300000  *
   661       C         67.04800000  *  155.75500000  * -57.40100000  *
   662       H         66.20400000  *  156.42400000  * -57.57000000  *
   663       H         67.70000000  *  155.79600000  * -58.27500000  *
   664       C         66.51900000  *  154.32100000  * -57.23300000  *
   665       H         67.36300000  *  153.65300000  * -57.05100000  *
   666       H         65.86000000  *  154.27800000  * -56.36900000  *
   667       C         65.70800000  *  153.80700000  * -58.42500000  *
   668       O         65.22900000  *  154.60800000  * -59.25900000  *
   669       O         65.50300000  *  152.57400000  * -58.48700000  *
   670       C         66.96300000  *  156.19700000  * -54.89400000  *
   671       O         66.86800000  *  155.13600000  * -54.27700000  *
   672       N         66.34700000  *  157.29800000  * -54.46200000  *
   673       H         66.40800000  *  158.15200000  * -54.99700000  *
   674       C         65.48700000  *  157.28200000  * -53.27400000  *
   675       H         65.96700000  *  156.67300000  * -52.50500000  *
   676       C         65.36300000  *  158.70100000  * -52.71400000  *
   677       H         66.36000000  *  159.06600000  * -52.47300000  *
   678       H         64.94500000  *  159.34900000  * -53.48600000  *
   679       C         64.51100000  *  158.80600000  * -51.46500000  *
   680       C         63.19400000  *  159.29900000  * -51.54400000  *
   681       H         62.78300000  *  159.60200000  * -52.49800000  *
   682       C         62.40800000  *  159.40100000  * -50.38400000  *
   683       H         61.39700000  *  159.77900000  * -50.45000000  *
   684       C         62.93400000  *  159.00700000  * -49.14100000  *
   685       H         62.32700000  *  159.08300000  * -48.24900000  *
   686       C         64.24900000  *  158.51500000  * -49.05900000  *
   687       H         64.65200000  *  158.21500000  * -48.10200000  *
   688       C         65.03700000  *  158.41300000  * -50.22000000  *
   689       H         66.04800000  *  158.03700000  * -50.15400000  *
   690       C         64.10700000  *  156.66900000  * -53.56600000  *
   691       O         63.45300000  *  157.03500000  * -54.54600000  *
   692       N         63.64300000  *  155.78600000  * -52.67700000  *
   693       H         64.25800000  *  155.51100000  * -51.92000000  *
   694       C         62.24800000  *  155.33200000  * -52.59300000  *
   695       H         61.65000000  *  155.84000000  * -53.35300000  *
   696       C         62.14600000  *  153.81600000  * -52.82600000  *
   697       H         62.86500000  *  153.30200000  * -52.18900000  *
   698       H         61.14800000  *  153.50600000  * -52.51300000  *
   699       C         62.34300000  *  153.40200000  * -54.29700000  *
   700       H         62.02200000  *  154.21000000  * -54.95300000  *
   701       C         63.80300000  *  153.05900000  * -54.59300000  *
   702       H         64.14500000  *  152.27900000  * -53.91500000  *
   703       H         63.90800000  *  152.72900000  * -55.62600000  *
   704       H         64.42500000  *  153.94100000  * -54.45400000  *
   705       C         61.49800000  *  152.16900000  * -54.62600000  *
   706       H         60.44900000  *  152.36700000  * -54.40200000  *
   707       H         61.57900000  *  151.94000000  * -55.68700000  *
   708       H         61.83200000  *  151.31300000  * -54.04400000  *
   709       C         61.66100000  *  155.71700000  * -51.23000000  *
   710       O         62.38000000  *  155.79900000  * -50.23800000  *
   711       N         60.36300000  *  156.00800000  * -51.18200000  *
   712       H         59.83100000  *  155.95700000  * -52.04200000  *
   713       C         59.74000000  *  156.70800000  * -50.05300000  *
   714       H         60.41400000  *  157.50800000  * -49.74300000  *
   715       C         58.44700000  *  157.37400000  * -50.54400000  *
   716       H         57.70200000  *  156.60000000  * -50.73400000  *
   717       H         58.07800000  *  158.02600000  * -49.75400000  *
   718       C         58.60700000  *  158.19300000  * -51.80500000  *
   719       N         58.65900000  *  157.67800000  * -53.10600000  *
   720       C         58.83500000  *  158.73800000  * -53.91500000  *
   721       H         58.91600000  *  158.69000000  * -54.99600000  *
   722       N         58.90000000  *  159.87000000  * -53.19400000  *
   723       H         59.02600000  *  160.80100000  * -53.58000000  *
   724       C         58.76200000  *  159.54700000  * -51.86200000  *
   725       H         58.77400000  *  160.22800000  * -51.02000000  *
   726       C         59.48800000  *  155.86000000  * -48.79200000  *
   727       O         59.34100000  *  156.43100000  * -47.71100000  *
   728       N         59.43800000  *  154.52600000  * -48.89800000  *
   729       H         59.57900000  *  154.11300000  * -49.81000000  *
   730       C         59.07900000  *  153.61500000  * -47.79600000  *
   731       H         59.53700000  *  153.98400000  * -46.87800000  *
   732       C         57.54500000  *  153.64400000  * -47.61200000  *
   733       H         57.25300000  *  154.66100000  * -47.34800000  *
   734       H         57.05700000  *  153.38800000  * -48.55400000  *
   735       C         57.03400000  *  152.69300000  * -46.51800000  *
   736       H         56.91300000  *  151.69700000  * -46.94000000  *
   737       H         57.76500000  *  152.64200000  * -45.71300000  *
   738       C         55.71500000  *  153.15000000  * -45.90500000  *
   739       O         55.67300000  *  153.85800000  * -44.91200000  *
   740       N         54.58500000  *  152.76500000  * -46.46000000  *
   741       H         53.73500000  *  153.08600000  * -46.02200000  *
   742       H         54.59000000  *  152.21000000  * -47.29700000  *
   743       C         59.60400000  *  152.18400000  * -48.02600000  *
   744       O         59.69300000  *  151.73100000  * -49.16800000  *
   745       N         59.93400000  *  151.46300000  * -46.94700000  *
   746       H         59.82900000  *  151.89600000  * -46.03000000  *
   747       C         60.26900000  *  150.03000000  * -47.00100000  *
   748       H         60.57200000  *  149.80100000  * -48.01900000  *
   749       C         61.49100000  *  149.71300000  * -46.12000000  *
   750       H         61.82300000  *  148.70400000  * -46.36600000  *
   751       H         62.29900000  *  150.39400000  * -46.39100000  *
   752       C         61.26100000  *  149.78000000  * -44.60600000  *
   753       O         60.30100000  *  149.15100000  * -44.11500000  *
   754       O         62.09500000  *  150.40800000  * -43.91200000  *
   755       C         59.06900000  *  149.10800000  * -46.70100000  *
   756       O         58.03500000  *  149.53500000  * -46.17000000  *
   757       N         59.19100000  *  147.81900000  * -47.04800000  *
   758       H         60.03800000  *  147.50900000  * -47.52500000  *
   759       C         58.10100000  *  146.88000000  * -46.84100000  *
   760       H         57.21800000  *  147.32500000  * -47.29300000  *
   761       C         58.41200000  *  145.57700000  * -47.59200000  *
   762       H         58.61300000  *  145.80400000  * -48.64400000  *
   763       H         59.28800000  *  145.12100000  * -47.15800000  *
   764       C         57.28700000  *  144.52700000  * -47.51900000  *
   765       H         57.05600000  *  144.28000000  * -46.48700000  *
   766       C         56.00700000  *  145.04400000  * -48.19600000  *
   767       H         56.23500000  *  145.37800000  * -49.20200000  *
   768       H         55.26800000  *  144.24500000  * -48.23100000  *
   769       H         55.59500000  *  145.87000000  * -47.62900000  *
   770       C         57.76800000  *  143.24900000  * -48.17500000  *
   771       H         58.61500000  *  142.85400000  * -47.62000000  *
   772       H         56.97300000  *  142.50400000  * -48.17100000  *
   773       H         58.06400000  *  143.44500000  * -49.20700000  *
   774       C         57.76400000  *  146.61300000  * -45.36900000  *
   775       O         56.60900000  *  146.37600000  * -45.03000000  *
   776       N         58.75700000  *  146.67700000  * -44.48800000  *
   777       H         59.64000000  *  147.08600000  * -44.79000000  *
   778       C         58.49100000  *  146.46700000  * -43.07300000  *
   779       H         57.97900000  *  145.55100000  * -42.87200000  *
   780       C         59.78200000  *  146.47800000  * -42.25400000  *
   781       H         60.44800000  *  145.70000000  * -42.62000000  *
   782       H         60.28600000  *  147.44000000  * -42.35600000  *
   783       C         59.49200000  *  146.22900000  * -40.76500000  *
   784       H         58.94200000  *  147.08300000  * -40.37400000  *
   785       H         58.87100000  *  145.33200000  * -40.67600000  *
   786       C         60.74500000  *  146.03800000  * -39.93500000  *
   787       H         61.36100000  *  145.25900000  * -40.37900000  *
   788       H         61.30800000  *  146.97100000  * -39.90700000  *
   789       C         60.37600000  *  145.60700000  * -38.51700000  *
   790       H         59.98500000  *  144.58900000  * -38.53700000  *
   791       H         61.27900000  *  145.61300000  * -37.90300000  *
   792       N         59.34600000  *  146.53100000  * -37.94700000  *
   793       H         58.44600000  *  146.48100000  * -38.44300000  *
   794       H         59.09000000  *  146.27800000  * -37.00400000  *
   795       H         59.61300000  *  147.50600000  * -37.97800000  *
   796       C         57.55800000  *  147.53800000  * -42.51200000  *
   797       O         56.61300000  *  147.23400000  * -41.78300000  *
   798       N         57.83600000  *  148.81600000  * -42.79600000  *
   799       H         58.66500000  *  149.01400000  * -43.36100000  *
   800       C         56.99500000  *  149.92400000  * -42.32000000  *
   801       H         56.88000000  *  149.82900000  * -41.23900000  *
   802       C         57.66000000  *  151.27900000  * -42.60900000  *
   803       H         58.65800000  *  151.28400000  * -42.16800000  *
   804       H         57.75300000  *  151.42100000  * -43.68700000  *
   805       C         56.83700000  *  152.42800000  * -41.99900000  *
   806       H         55.87300000  *  152.48800000  * -42.50600000  *
   807       H         56.65900000  *  152.21700000  * -40.94300000  *
   808       C         57.54000000  *  153.78500000  * -42.11600000  *
   809       H         58.46600000  *  153.75800000  * -41.54000000  *
   810       H         57.76900000  *  153.98600000  * -43.16400000  *
   811       C         56.61900000  *  154.88300000  * -41.56600000  *
   812       H         55.70100000  *  154.89900000  * -42.16200000  *
   813       H         56.34300000  *  154.62600000  * -40.53900000  *
   814       N         57.26600000  *  156.22000000  * -41.59300000  *
   815       H         57.50500000  *  156.49400000  * -42.53500000  *
   816       H         56.64900000  *  156.92700000  * -41.21800000  *
   817       H         58.10900000  *  156.23100000  * -41.03900000  *
   818       C         55.59600000  *  149.81900000  * -42.91900000  *
   819       O         54.61300000  *  150.04500000  * -42.21900000  *
   820       N         55.49500000  *  149.42600000  * -44.18900000  *
   821       H         56.35000000  *  149.26300000  * -44.71300000  *
   822       C         54.20500000  *  149.26000000  * -44.85200000  *
   823       H         53.62600000  *  150.17500000  * -44.72500000  *
   824       C         54.41000000  *  148.98800000  * -46.34000000  *
   825       H         54.98900000  *  149.80200000  * -46.77700000  *
   826       H         55.00200000  *  148.07700000  * -46.45200000  *
   827       C         53.12600000  *  148.85300000  * -47.10800000  *
   828       C         52.23100000  *  149.92200000  * -47.18600000  *
   829       H         52.46300000  *  150.85600000  * -46.69900000  *
   830       C         51.01500000  *  149.79500000  * -47.88400000  *
   831       H         50.32500000  *  150.62800000  * -47.91800000  *
   832       C         50.69700000  *  148.60300000  * -48.50200000  *
   833       H         49.75200000  *  148.50200000  * -49.02000000  *
   834       C         51.58700000  *  147.52100000  * -48.43200000  *
   835       H         51.33500000  *  146.58300000  * -48.91200000  *
   836       C         52.79500000  *  147.65400000  * -47.73300000  *
   837       H         53.46700000  *  146.81000000  * -47.67200000  *
   838       C         53.37400000  *  148.12200000  * -44.22700000  *
   839       O         52.16900000  *  148.28300000  * -44.00900000  *
   840       N         54.01600000  *  146.98100000  * -43.96600000  *
   841       H         55.00900000  *  146.90600000  * -44.17900000  *
   842       C         53.33800000  *  145.83600000  * -43.34100000  *
   843       H         52.47600000  *  145.52800000  * -43.93400000  *
   844       C         54.29200000  *  144.65000000  * -43.17000000  *
   845       H         55.15800000  *  145.02700000  * -42.63600000  *
   846       H         53.80700000  *  143.89200000  * -42.54700000  *
   847       C         54.73100000  *  144.00400000  * -44.46100000  *
   848       H         53.84700000  *  143.61400000  * -44.95900000  *
   849       H         55.19200000  *  144.69400000  * -45.15000000  *
   850       S         55.79700000  *  142.58100000  * -44.15400000  *
   851       C         57.05400000  *  143.29200000  * -43.18800000  *
   852       H         56.67800000  *  143.65800000  * -42.23500000  *
   853       H         57.80700000  *  142.53400000  * -42.98200000  *
   854       H         57.44300000  *  144.07900000  * -43.80900000  *
   855       C         52.84400000  *  146.26000000  * -41.95900000  *
   856       O         51.68200000  *  146.03200000  * -41.61400000  *
   857       N         53.72600000  *  146.88400000  * -41.17900000  *
   858       H         54.70100000  *  146.95700000  * -41.45300000  *
   859       C         53.34300000  *  147.35100000  * -39.84600000  *
   860       H         53.03400000  *  146.49700000  * -39.23800000  *
   861       C         54.50500000  *  148.07700000  * -39.15700000  *
   862       H         54.94100000  *  148.81500000  * -39.83000000  *
   863       H         54.12400000  *  148.60600000  * -38.28400000  *
   864       C         55.58400000  *  147.11500000  * -38.68500000  *
   865       O         55.26200000  *  145.90900000  * -38.57600000  *
   866       O         56.73300000  *  147.55200000  * -38.41700000  *
   867       C         52.15000000  *  148.27900000  * -39.96300000  *
   868       O         51.20300000  *  148.18000000  * -39.18700000  *
   869       N         52.18300000  *  149.16200000  * -40.95500000  *
   870       H         53.01600000  *  149.23700000  * -41.51800000  *
   871       C         51.08600000  *  150.10000000  * -41.17300000  *
   872       H         50.93100000  *  150.67400000  * -40.25800000  *
   873       C         51.42800000  *  151.06800000  * -42.31500000  *
   874       H         51.45500000  *  150.53900000  * -43.26600000  *
   875       H         50.66000000  *  151.83800000  * -42.36800000  *
   876       H         52.39300000  *  151.53600000  * -42.12800000  *
   877       C         49.78900000  *  149.37000000  * -41.49900000  *
   878       O         48.71100000  *  149.83600000  * -41.15600000  *
   879       N         49.90500000  *  148.22900000  * -42.16400000  *
   880       H         50.83800000  *  147.88500000  * -42.38200000  *
   881       C         48.74000000  *  147.45400000  * -42.57500000  *
   882       H         47.85700000  *  148.08600000  * -42.62800000  *
   883       H         48.90600000  *  147.02300000  * -43.58600000  *
   884       H         48.52600000  *  146.61900000  * -41.88800000  *
   885       H         72.54500000  *  137.05800000  * -55.15200000  *
   886       C         72.38600000  *  137.90500000  * -54.47400000  *
   887       O         73.28300000  *  138.71900000  * -54.28600000  *
   888       N         71.20100000  *  138.01500000  * -53.89800000  *
   889       H         70.47300000  *  137.31400000  * -54.05700000  *
   890       C         70.96800000  *  139.10000000  * -52.94900000  *
   891       H         71.50000000  *  140.00600000  * -53.22900000  *
   892       C         69.47700000  *  139.40500000  * -52.82500000  *
   893       H         69.09300000  *  139.71900000  * -53.79200000  *
   894       H         68.93000000  *  138.50600000  * -52.53300000  *
   895       C         69.17800000  *  140.45400000  * -51.81200000  *
   896       N         69.23000000  *  140.42300000  * -50.45900000  *
   897       C         68.94700000  *  141.69100000  * -50.01400000  *
   898       H         68.96900000  *  142.01200000  * -48.98400000  *
   899       N         68.72400000  *  142.47200000  * -51.05500000  *
   900       H         68.47200000  *  143.44500000  * -51.00700000  *
   901       C         68.85400000  *  141.75000000  * -52.15500000  *
   902       H         68.77100000  *  142.12600000  * -53.16500000  *
   903       C         71.52100000  *  138.65700000  * -51.58300000  *
   904       O         72.28000000  *  139.38000000  * -50.94700000  *
   905       N         71.11400000  *  137.47100000  * -51.14500000  *
   906       H         70.37100000  *  137.01600000  * -51.66500000  *
   907       C         71.55500000  *  136.88000000  * -49.87700000  *
   908       H         71.18200000  *  135.84900000  * -49.87900000  *
   909       C         73.07600000  *  136.85300000  * -49.83700000  *
   910       H         73.53100000  *  137.83300000  * -49.86900000  *
   911       H         73.36600000  *  136.47900000  * -48.85100000  *
   912       C         73.64700000  *  135.85900000  * -50.81700000  *
   913       H         73.29800000  *  134.87100000  * -50.67200000  *
   914       H         73.21600000  *  136.10500000  * -51.78700000  *
   915       C         75.11700000  *  136.08400000  * -50.99900000  *
   916       H         75.61200000  *  135.95400000  * -50.03300000  *
   917       H         75.49500000  *  135.33200000  * -51.69500000  *
   918       N         75.35800000  *  137.42700000  * -51.50600000  *
   919       H         74.62100000  *  138.12700000  * -51.38200000  *
   920       C         76.54800000  *  137.85900000  * -51.89000000  *
   921       N         77.59300000  *  137.04400000  * -51.81500000  *
   922       H         77.44700000  *  136.21200000  * -51.26800000  *
   923       H         78.49900000  *  137.44300000  * -51.92100000  *
   924       N         76.69000000  *  139.09300000  * -52.35600000  *
   925       H         75.86000000  *  139.69200000  * -52.33800000  *
   926       H         77.56200000  *  139.47800000  * -52.67100000  *
   927       C         71.03700000  *  137.42400000  * -48.54200000  *
   928       O         71.18700000  *  136.76800000  * -47.50900000  *
   929       N         70.43700000  *  138.60400000  * -48.51600000  *
   930       H         70.32800000  *  139.16900000  * -49.34700000  *
   931       C         69.93700000  *  139.07600000  * -47.23100000  *
   932       H         69.76500000  *  138.24900000  * -46.54100000  *
   933       C         70.93500000  *  140.04200000  * -46.56200000  *
   934       H         71.90900000  *  139.56600000  * -46.50900000  *
   935       H         71.04400000  *  140.94300000  * -47.17900000  *
   936       C         70.51300000  *  140.42800000  * -45.14700000  *
   937       O         70.17200000  *  139.51500000  * -44.35500000  *
   938       O         70.51000000  *  141.64400000  * -44.82500000  *
   939       C         68.58700000  *  139.73400000  * -47.37800000  *
   940       O         68.35000000  *  140.81000000  * -46.83500000  *
   941       N         67.68700000  *  139.08300000  * -48.11000000  *
   942       H         67.94300000  *  138.20800000  * -48.54500000  *
   943       C         66.35900000  *  139.64900000  * -48.29900000  *
   944       H         66.47700000  *  140.66700000  * -48.65900000  *
   945       C         65.54600000  *  138.81300000  * -49.28800000  *
   946       H         65.58300000  *  137.78400000  * -48.94500000  *
   947       H         64.50600000  *  139.14000000  * -49.25500000  *
   948       C         66.02700000  *  138.85500000  * -50.73600000  *
   949       H         67.06400000  *  138.52800000  * -50.78200000  *
   950       C         65.17300000  *  137.91700000  * -51.58300000  *
   951       H         64.15900000  *  138.30500000  * -51.68800000  *
   952       H         65.63400000  *  137.80700000  * -52.55000000  *
   953       H         65.13400000  *  136.93500000  * -51.11000000  *
   954       C         65.92100000  *  140.27700000  * -51.26400000  *
   955       H         66.42000000  *  140.99600000  * -50.63300000  *
   956       H         66.44200000  *  140.27500000  * -52.20900000  *
   957       H         64.88200000  *  140.56100000  * -51.39700000  *
   958       C         65.59400000  *  139.73400000  * -46.98200000  *
   959       O         65.58600000  *  138.79200000  * -46.16600000  *
   960       N         64.95600000  *  140.85500000  * -46.74500000  *
   961       H         64.96700000  *  141.58800000  * -47.44200000  *
   962       C         64.16300000  *  141.06000000  * -45.54900000  *
   963       H         63.55000000  *  140.17000000  * -45.41500000  *
   964       C         65.03700000  *  141.21800000  * -44.28600000  *
   965       H         64.39800000  *  141.28400000  * -43.40500000  *
   966       H         65.62800000  *  140.30900000  * -44.16600000  *
   967       C         65.98100000  *  142.42600000  * -44.28500000  *
   968       H         66.39200000  *  142.57700000  * -45.28100000  *
   969       H         65.43400000  *  143.31800000  * -43.98200000  *
   970       C         67.13500000  *  142.14800000  * -43.31500000  *
   971       H         66.73500000  *  141.86500000  * -42.33800000  *
   972       H         67.71200000  *  141.31000000  * -43.71400000  *
   973       C         68.04800000  *  143.36600000  * -43.15000000  *
   974       H         68.16000000  *  143.86200000  * -44.12000000  *
   975       H         67.56500000  *  144.07300000  * -42.46500000  *
   976       N         69.37700000  *  142.94800000  * -42.63400000  *
   977       H         69.87200000  *  142.39200000  * -43.34500000  *
   978       H         69.94300000  *  143.74900000  * -42.38700000  *
   979       H         69.27600000  *  142.37800000  * -41.80400000  *
   980       C         63.26600000  *  142.23000000  * -45.83700000  *
   981       O         63.62900000  *  143.07600000  * -46.65400000  *
   982       N         62.11200000  *  142.30300000  * -45.18600000  *
   983       C         61.62600000  *  141.34600000  * -44.17100000  *
   984       H         62.10000000  *  141.53200000  * -43.20900000  *
   985       H         61.74500000  *  140.31100000  * -44.47600000  *
   986       C         60.16400000  *  141.66900000  * -44.09500000  *
   987       H         59.73700000  *  141.34900000  * -43.14300000  *
   988       H         59.63700000  *  141.20600000  * -44.93200000  *
   989       C         60.16000000  *  143.18900000  * -44.24800000  *
   990       H         60.51600000  *  143.64900000  * -43.32100000  *
   991       H         59.20200000  *  143.56500000  * -44.57400000  *
   992       C         61.14500000  *  143.38000000  * -45.40300000  *
   993       H         60.63400000  *  143.20500000  * -46.34500000  *
   994       C         61.77100000  *  144.77100000  * -45.44800000  *
   995       O         61.39200000  *  145.58400000  * -46.27300000  *
   996       N         62.72700000  *  145.08700000  * -44.55800000  *
   997       H         62.97200000  *  144.39700000  * -43.86400000  *
   998       C         63.44800000  *  146.38200000  * -44.53700000  *
   999       H         62.71800000  *  147.18700000  * -44.43000000  *
  1000       C         64.41200000  *  146.43800000  * -43.33900000  *
  1001       H         65.10200000  *  145.59600000  * -43.39700000  *
  1002       H         65.00000000  *  147.35400000  * -43.41600000  *
  1003       C         63.72300000  *  146.44600000  * -41.96700000  *
  1004       H         63.03400000  *  147.29000000  * -41.92500000  *
  1005       H         63.15600000  *  145.52600000  * -41.83500000  *
  1006       C         64.73400000  *  146.55200000  * -40.82400000  *
  1007       O         65.74500000  *  145.86200000  * -40.78500000  *
  1008       N         64.50600000  *  147.40100000  * -39.84600000  *
  1009       H         65.18300000  *  147.46000000  * -39.09800000  *
  1010       H         63.70100000  *  148.00800000  * -39.86000000  *
  1011       C         64.26800000  *  146.67700000  * -45.81200000  *
  1012       O         64.43700000  *  147.83300000  * -46.19100000  *
  1013       N         64.76500000  *  145.63100000  * -46.47700000  *
  1014       H         64.49200000  *  144.71000000  * -46.16700000  *
  1015       C         65.54000000  *  145.69300000  * -47.71800000  *
  1016       H         66.10600000  *  146.62500000  * -47.74900000  *
  1017       C         66.54400000  *  144.50900000  * -47.75200000  *
  1018       H         66.04100000  *  143.59100000  * -47.46100000  *
  1019       H         66.89400000  *  144.36400000  * -48.77100000  *
  1020       C         67.79300000  *  144.69900000  * -46.90000000  *
  1021       O         68.13900000  *  145.78900000  * -46.48100000  *
  1022       N         68.52900000  *  143.64600000  * -46.61200000  *
  1023       H         69.40400000  *  143.79600000  * -46.14000000  *
  1024       H         68.26300000  *  142.69500000  * -46.85100000  *
  1025       C         64.63300000  *  145.70700000  * -48.96800000  *
  1026       O         65.15400000  *  145.61500000  * -50.07900000  *
  1027       N         63.30000000  *  145.80300000  * -48.83400000  *
  1028       H         62.89500000  *  145.87300000  * -47.90900000  *
  1029       C         62.40600000  *  145.84500000  * -49.97900000  *
  1030       H         62.94700000  *  145.74800000  * -50.91900000  *
  1031       C         61.36900000  *  144.72100000  * -49.88900000  *
  1032       H         60.76900000  *  144.86100000  * -48.99200000  *
  1033       H         60.74400000  *  144.79800000  * -50.77200000  *
  1034       C         62.03600000  *  143.32400000  * -49.85900000  *
  1035       H         62.67100000  *  143.24000000  * -48.98800000  *
  1036       C         61.00200000  *  142.26000000  * -49.77100000  *
  1037       H         60.24600000  *  142.42800000  * -50.53400000  *
  1038       H         61.44700000  *  141.27100000  * -49.89000000  *
  1039       H         60.52000000  *  142.31900000  * -48.79800000  *
  1040       C         62.89500000  *  143.12600000  * -51.08400000  *
  1041       H         63.82900000  *  143.66800000  * -50.95600000  *
  1042       H         63.12900000  *  142.06900000  * -51.20900000  *
  1043       H         62.39300000  *  143.49200000  * -51.96600000  *
  1044       C         61.76300000  *  147.21800000  * -49.95200000  *
  1045       O         61.15000000  *  147.60200000  * -48.96600000  *
  1046       N         61.89400000  *  147.98800000  * -51.02600000  *
  1047       H         62.38800000  *  147.62000000  * -51.83300000  *
  1048       C         61.44600000  *  149.38100000  * -51.05400000  *
  1049       H         61.04900000  *  149.67100000  * -50.08300000  *
  1050       C         62.62500000  *  150.30200000  * -51.36000000  *
  1051       H         62.97300000  *  150.10200000  * -52.37400000  *
  1052       H         62.26100000  *  151.32600000  * -51.30900000  *
  1053       C         63.81000000  *  150.14500000  * -50.39800000  *
  1054       H         64.24800000  *  149.15400000  * -50.51000000  *
  1055       C         64.84700000  *  151.18800000  * -50.76300000  *
  1056       H         64.46900000  *  152.17600000  * -50.51100000  *
  1057       H         65.76100000  *  150.97900000  * -50.21600000  *
  1058       H         65.06100000  *  151.16300000  * -51.82600000  *
  1059       C         63.44600000  *  150.36200000  * -48.93200000  *
  1060       H         62.81100000  *  149.54900000  * -48.59600000  *
  1061       H         64.34500000  *  150.34900000  * -48.32100000  *
  1062       H         62.92200000  *  151.31000000  * -48.80700000  *
  1063       C         60.32800000  *  149.56900000  * -52.06300000  *
  1064       O         60.43000000  *  149.11100000  * -53.18900000  *
  1065       N         59.26800000  *  150.25600000  * -51.67700000  *
  1066       H         59.36500000  *  150.76300000  * -50.80000000  *
  1067       C         58.08300000  *  150.44700000  * -52.50800000  *
  1068       H         58.17300000  *  149.92400000  * -53.45700000  *
  1069       C         56.81900000  *  149.90600000  * -51.78600000  *
  1070       H         55.94300000  *  150.08700000  * -52.41500000  *
  1071       C         56.95000000  *  148.40400000  * -51.54300000  *
  1072       H         57.75300000  *  148.18300000  * -50.83300000  *
  1073       H         56.01300000  *  148.00400000  * -51.15200000  *
  1074       H         57.15800000  *  147.91500000  * -52.48900000  *
  1075       C         56.64700000  *  150.60600000  * -50.43300000  *
  1076       H         57.48200000  *  150.38000000  * -49.77500000  *
  1077       H         56.60500000  *  151.68300000  * -50.57600000  *
  1078       C         55.37000000  *  150.22200000  * -49.68600000  *
  1079       H         55.48900000  *  149.24800000  * -49.22200000  *
  1080       H         55.17000000  *  150.96500000  * -48.91000000  *
  1081       H         54.52900000  *  150.16800000  * -50.38500000  *
  1082       C         57.87200000  *  151.93000000  * -52.81700000  *
  1083       O         58.38200000  *  152.79400000  * -52.10000000  *
  1084       N         57.14900000  *  152.22000000  * -53.89700000  *
  1085       H         56.70500000  *  151.48200000  * -54.43300000  *
  1086       C         56.84100000  *  153.60200000  * -54.22700000  *
  1087       H         57.16800000  *  154.27800000  * -53.43100000  *
  1088       C         57.50400000  *  154.05300000  * -55.54100000  *
  1089       H         57.21800000  *  155.07000000  * -55.80500000  *
  1090       H         58.58200000  *  154.04400000  * -55.38800000  *
  1091       C         57.19300000  *  153.14600000  * -56.70100000  *
  1092       O         56.13500000  *  152.53500000  * -56.76400000  *
  1093       N         58.11500000  *  153.07200000  * -57.64100000  *
  1094       H         57.83300000  *  152.61700000  * -58.48600000  *
  1095       H         58.88600000  *  153.71500000  * -57.62100000  *
  1096       C         55.33100000  *  153.75800000  * -54.32100000  *
  1097       O         54.57600000  *  152.79900000  * -54.11400000  *
  1098       N         54.88500000  *  154.97100000  * -54.62100000  *
  1099       H         55.52100000  *  155.73600000  * -54.79200000  *
  1100       C         53.46400000  *  155.24700000  * -54.72300000  *
  1101       H         52.92700000  *  154.82600000  * -53.87200000  *
  1102       C         53.20900000  *  156.78000000  * -54.75500000  *
  1103       H         52.16900000  *  156.98000000  * -55.02600000  *
  1104       C         53.47800000  *  157.39700000  * -53.41000000  *
  1105       H         54.52100000  *  157.25500000  * -53.13000000  *
[...]
 1005  H   0.82948
 1006  C   1.06510   0.79709   0.73584   0.79738
 1007  O   1.87783   1.41346   1.57214   1.83146
 1008  N   1.52707   1.35102   1.41398   1.30748
 1009  H   0.65694
 1010  H   0.66338
 1011  C   1.08369   0.75446   0.78238   0.81740
 1012  O   1.88481   1.66413   1.30993   1.72827
 1013  N   1.55168   1.50947   1.20145   1.30190
 1014  H   0.66623
 1015  C   1.07331   0.94688   1.09307   0.82024
 1016  H   0.80442
 1017  C   1.07067   1.04762   1.08779   1.16887
 1018  H   0.83200
 1019  H   0.79570
 1020  C   1.05824   0.80813   0.76695   0.75177
 1021  O   1.87505   1.76328   1.39749   1.63088
 1022  N   1.53179   1.31353   1.19213   1.58810
 1023  H   0.66621
 1024  H   0.65416
 1025  C   1.08806   0.78531   0.71976   0.85270
 1026  O   1.87941   1.76835   1.61091   1.37854
 1027  N   1.54099   1.12580   1.66389   1.18350
 1028  H   0.65360
 1029  C   1.06984   0.96905   0.97953   0.97480
 1030  H   0.81074
 1031  C   1.06729   1.06439   0.99768   1.17272
 1032  H   0.83728
 1033  H   0.84812
 1034  C   1.04100   1.01188   0.94623   1.06217
 1035  H   0.85580
 1036  C   1.04922   1.12589   1.11845   1.17078
 1037  H   0.84494
 1038  H   0.84897
 1039  H   0.86564
 1040  C   1.05155   1.14155   1.17168   1.09912
 1041  H   0.84458
 1042  H   0.85774
 1043  H   0.84987
 1044  C   1.07688   0.74966   0.84302   0.75527
 1045  O   1.87193   1.53770   1.79730   1.44532
 1046  N   1.54609   1.55563   1.17097   1.24899
 1047  H   0.64576
 1048  C   1.06571   0.98948   0.82553   1.09945
 1049  H   0.81399
 1050  C   1.06489   1.02316   1.10374   1.12613
 1051  H   0.84737
 1052  H   0.84132
 1053  C   1.04844   0.96846   1.07111   0.96828
 1054  H   0.86586
 1055  C   1.05403   1.12407   1.12764   1.16695
 1056  H   0.84632
 1057  H   0.84758
 1058  H   0.86119
 1059  C   1.05456   1.17601   1.17762   1.04665
 1060  H   0.84002
 1061  H   0.85187
 1062  H   0.84740
 1063  C   1.07634   0.79769   0.74346   0.81759
 1064  O   1.86922   1.83047   1.62418   1.34162
 1065  N   1.54185   1.18953   1.47276   1.29498
 1066  H   0.64508
 1067  C   1.07604   0.88901   1.00668   1.04154
 1068  H   0.81020
 1069  C   1.06432   1.01511   0.99302   1.01958
 1070  H   0.85013
 1071  C   1.05462   1.18120   1.03395   1.17650
 1072  H   0.84311
 1073  H   0.84515
 1074  H   0.85342
 1075  C   1.05400   1.06955   1.12022   1.03156
 1076  H   0.84560
 1077  H   0.86097
 1078  C   1.05249   1.08968   1.15706   1.13158
 1079  H   0.84823
 1080  H   0.87873
 1081  H   0.84663
 1082  C   1.08624   0.74254   0.88751   0.74259
 1083  O   1.88670   1.56912   1.57681   1.55748
 1084  N   1.54287   1.50685   1.14435   1.33728
 1085  H   0.64365
 1086  C   1.06247   0.97212   0.88380   1.03810
 1087  H   0.80344
 1088  C   1.07241   1.18073   1.12731   1.02300
 1089  H   0.80959
 1090  H   0.80503
 1091  C   1.06104   0.76121   0.77036   0.82342
 1092  O   1.88006   1.35593   1.56959   1.83604
 1093  N   1.53427   1.29800   1.49524   1.27241
 1094  H   0.67193
 1095  H   0.66481
 1096  C   1.08280   0.88433   0.75904   0.71254
 1097  O   1.88768   1.65443   1.46897   1.58991
 1098  N   1.54005   1.14494   1.19766   1.67143
 1099  H   0.66268
 1100  C   1.08552   0.83755   1.05831   1.08206
 1101  H   0.80386
 1102  C   1.08422   0.99129   0.86672   0.88979
 1103  H   0.84696
 1104  C   1.05385   1.18446   1.18002   1.05462
 1105  H   0.84088
 1106  H   0.82446
 1107  H   0.82928
 1108  O   1.84888   1.59212   1.82284   1.34498
 1109  H   0.64289
 1110  C   1.07344   0.78888   0.75523   0.82421
 1111  O   1.87781   1.28015   1.68925   1.84898
 1112  N   1.53336   1.19360   1.53455   1.21098
 1113  H   0.66694
 1114  C   1.05707   1.15374   1.13341   0.89319
 1115  H   0.83541
 1116  H   0.83782
 1117  H   0.83545
 1118  H   0.83950
 1119  C   1.10510   0.75494   0.73537   0.91356
 1120  O   1.88314   1.71070   1.59667   1.48269
 1121  N   1.54487   1.42791   1.34580   1.20809
 1122  H   0.65348
 1123  C   1.08070   0.93123   1.08431   0.93151
 1124  H   0.80997
 1125  C   1.07316   1.07912   0.95373   0.98253
 1126  H   0.84394
 1127  C   1.05810   1.18718   1.08396   1.12930
 1128  H   0.84347
 1129  H   0.84840
 1130  H   0.85201
 1131  C   1.05414   1.07581   1.13448   1.01857
 1132  H   0.85357
 1133  H   0.85482
 1134  C   1.04918   1.14387   1.15092   1.09050
 1135  H   0.84999
 1136  H   0.85962
 1137  H   0.84946
 1138  C   1.07225   0.84160   0.73675   0.77783
 1139  O   1.87775   1.89033   1.52080   1.39059
 1140  N   1.54465   1.10311   1.52638   1.33524
 1141  H   0.63272
 1142  C   1.06988   0.84593   1.05364   1.03793
 1143  H   0.81793
 1144  C   1.06009   1.09252   1.04628   1.09627
 1145  H   0.83600
 1146  H   0.84639
 1147  C   1.05107   1.08577   1.04445   1.07800
 1148  H   0.84986
 1149  H   0.84476
 1150  C   1.05937   1.08225   1.05486   1.09805
 1151  H   0.84184
 1152  H   0.83206
 1153  C   1.07887   1.02196   0.99741   1.07422
 1154  H   0.81149
 1155  H   0.83350
 1156  N   1.45909   1.23078   1.22871   1.25624
 1157  H   0.69505
 1158  H   0.70014
 1159  H   0.68634
 1160  C   1.07827   0.77985   0.75055   0.82550
 1161  O   1.88120   1.77236   1.69287   1.29040
 1162  N   1.54486   1.32904   1.42537   1.23097
 1163  H   0.64041
 1164  C   1.07031   0.91897   0.95785   1.02905
 1165  H   0.83205
 1166  C   1.06276   1.09999   1.01939   1.13292
 1167  H   0.83526
 1168  H   0.84496
 1169  C   1.05374   1.07074   0.96108   0.96347
 1170  H   0.85964
 1171  C   1.06224   1.16616   1.13944   1.09225
 1172  H   0.85192
 1173  H   0.84913
 1174  H   0.85261
 1175  C   1.05739   1.18271   1.13703   1.08877
 1176  H   0.85355
 1177  H   0.84824
 1178  H   0.85428
 1179  C   1.08479   0.79129   0.79835   0.75863
 1180  O   1.88088   1.63453   1.59895   1.53719
 1181  N   1.54389   1.36868   1.43872   1.15943
 1182  H   0.64690
 1183  C   1.06734   0.91440   0.92693   1.05058
 1184  H   0.82788
 1185  C   1.05954   1.16392   1.08546   1.15498
 1186  H   0.82194
 1187  H   0.83284
 1188  H   0.82850
 1189  C   1.08825   0.78848   0.78228   0.74697
 1190  O   1.87306   1.84576   1.36505   1.58680
 1191  N   1.54690   1.16686   1.33321   1.48869
 1192  H   0.67291
 1193  C   1.07506   0.87556   1.08195   0.93579
 1194  H   0.81082
 1195  C   1.07940   1.14064   1.18606   1.00243
 1196  H   0.80924
 1197  H   0.82904
 1198  C   1.07381   0.74187   0.71906   0.70259
 1199  O   1.88668   1.79444   1.49094   1.55705
 1200  O   1.87212   1.68369   1.50899   1.80736
 1201  C   1.09148   0.81900   0.79690   0.74487
 1202  O   1.88760   1.27710   1.81451   1.56679
 1203  N   1.56739   1.29283   1.16898   1.54319
 1204  H   0.67888
 1205  C   1.07956   1.01969   0.91929   0.95338
 1206  H   0.83917
 1207  C   1.05569   1.07769   1.20264   0.96263
 1208  H   0.81377
 1209  H   0.81991
 1210  C   1.07473   0.97402   0.97768   0.97028
 1211  C   1.09008   1.04126   1.04155   1.01425
 1212  H   0.83961
 1213  C   1.08869   0.98526   1.06194   1.01036
 1214  H   0.84224
 1215  C   1.08750   1.05977   0.99183   1.03230
 1216  H   0.84777
 1217  C   1.08946   1.03707   1.03601   0.98889
 1218  H   0.83139
 1219  C   1.08722   0.98621   1.06402   1.02405
 1220  H   0.83791
 1221  C   1.08994   0.80316   0.77338   0.76299
 1222  O   1.88543   1.44323   1.55837   1.71352
 1223  N   1.53958   1.41496   1.43845   1.13693
 1224  H   0.68652
 1225  C   1.06850   0.98848   1.06894   0.98113
 1226  H   0.81468
 1227  H   0.80528
 1228  C   1.07984   0.82844   0.77894   0.70365
 1229  O   1.87715   1.84029   1.32317   1.60850
 1230  N   1.55915   1.30201   1.23368   1.45055
 1231  H   0.67500
 1232  C   1.07780   0.89809   1.03315   0.96956
 1233  H   0.83194
 1234  C   1.06796   1.11416   0.95030   1.17377
 1235  H   0.84122
 1236  H   0.82847
 1237  C   1.05186   1.03128   0.96029   1.01230
 1238  H   0.86290
 1239  C   1.05589   1.16884   1.06803   1.16151
 1240  H   0.85825
 1241  H   0.84250
 1242  H   0.85801
 1243  C   1.05566   1.17171   1.18946   1.04529
 1244  H   0.84111
 1245  H   0.84032
 1246  H   0.85779
 1247  C   1.09501   0.85783   0.76656   0.72772
 1248  O   1.88131   1.32408   1.78575   1.59287
 1249  N   1.58213   1.28174   1.23275   1.52143
 1250  H   0.66106
 1251  C   1.06873   0.96496   0.99763   0.95374
 1252  H   0.83618
 1253  C   1.05860   1.13925   1.09718   1.17441
 1254  H   0.84384
 1255  H   0.80954
 1256  H   0.81105
 1257  C   1.07564   0.83407   0.75263   0.78168
 1258  O   1.88398   1.49885   1.59892   1.64919
 1259  N   1.54299   1.31156   1.51231   1.14401
 1260  H   0.67644
 1261  C   1.06252   0.92392   1.14577   1.10582
 1262  H   0.82617
 1263  H   0.82957
 1264  H   0.83890
 1265  H   0.84115
 1266  C   1.10477   0.72492   0.79430   0.87705
 1267  O   1.88388   1.53277   1.36148   1.88303
 1268  N   1.54284   1.48763   1.35128   1.14842
 1269  H   0.67738
 1270  C   1.07278   1.11692   0.96740   0.82293
 1271  H   0.80250
 1272  C   1.05754   1.09002   1.02776   1.15055
 1273  H   0.83931
 1274  H   0.82070
 1275  C   1.06444   0.97780   0.95024   0.96828
 1276  C   1.08297   1.02007   0.99434   1.05946
 1277  H   0.83862
 1278  C   1.08256   1.04649   1.02674   0.99698
 1279  H   0.84375
 1280  C   1.08137   1.00634   1.05587   1.02609
 1281  H   0.84899
 1282  C   1.08077   1.02432   1.00360   1.05462
 1283  H   0.85472
 1284  C   1.08269   1.06031   1.02727   0.99713
 1285  H   0.84077
 1286  C   1.08007   0.76678   0.78612   0.79914
 1287  O   1.88377   1.53937   1.68060   1.53390
 1288  N   1.53635   1.17526   1.34766   1.43120
 1289  H   0.67337
 1290  C   1.05783   1.14243   0.97572   0.99838
 1291  H   0.81503
 1292  H   0.78887
 1293  C   1.07415   0.78746   0.75688   0.80177
 1294  O   1.88061   1.54200   1.38442   1.84217
 1295  N   1.53616   1.41011   1.37741   1.17735
 1296  H   0.65048
 1297  C   1.07421   1.00272   1.19850   0.87807
 1298  H   0.81293
 1299  H   0.79392
 1300  C   1.08205   0.77434   0.74505   0.80739
 1301  O   1.88291   1.52146   1.53240   1.73133
 1302  N   1.56472   1.44485   1.16586   1.26733
 1303  C   1.07074   1.06934   0.87093   1.05650
 1304  H   0.83615
 1305  H   0.84112
 1306  C   1.05705   1.04772   1.13521   1.05888
 1307  H   0.84541
 1308  H   0.80846
 1309  C   1.06098   1.08127   0.98357   1.17241
 1310  H   0.83531
 1311  H   0.81919
 1312  C   1.07353   1.05295   1.00101   0.86831
 1313  H   0.81302
 1314  C   1.08820   0.76383   0.76839   0.82878
 1315  O   1.88395   1.42691   1.43529   1.88339
 1316  N   1.54310   1.40336   1.48375   1.11756
 1317  H   0.64352
 1318  C   1.08223   1.04970   1.11424   0.89101
 1319  H   0.80066
 1320  H   0.78724
 1321  C   1.08831   0.82552   0.73022   0.77834
 1322  O   1.88491   1.70329   1.72960   1.32949
 1323  N   1.55115   1.23249   1.41125   1.34472
 1324  H   0.68850
 1325  C   1.07570   0.85986   1.06398   0.97843
 1326  H   0.82207
 1327  C   1.05961   1.16902   1.07546   0.97632
 1328  H   0.83480
 1329  H   0.83878
 1330  C   1.05817   1.13849   1.07483   1.02399
 1331  H   0.82460
 1332  H   0.87157
 1333  C   1.06375   1.08741   1.09998   0.78145
 1334  H   0.85053
 1335  H   0.81936
 1336  N   1.53282   1.62698   1.28989   1.09341
 1337  H   0.64881
 1338  C   0.97601   0.83629   0.80288   0.79450
 1339  N   1.50146   1.56333   1.25851   1.24811
 1340  H   0.67471
 1341  H   0.62632
 1342  N   1.50407   1.55700   1.35355   1.14114
 1343  H   0.64454
 1344  H   0.63716
 1345  C   1.08259   0.75737   0.77373   0.84378
 1346  O   1.88762   1.48092   1.64713   1.56800
 1347  N   1.54311   1.54517   1.19778   1.24084
 1348  H   0.67337
 1349  C   1.08999   1.00033   1.00978   0.91842
 1350  H   0.79943
 1351  C   1.08564   0.92877   0.92511   0.87484
 1352  H   0.85176
 1353  C   1.05842   1.09866   1.12853   1.20387
 1354  H   0.82589
 1355  H   0.83314
 1356  H   0.83078
 1357  O   1.84250   1.58512   1.64219   1.57174
 1358  H   0.62377
 1359  C   1.07909   0.80884   0.78958   0.75880
 1360  O   1.88642   1.54240   1.79535   1.37665
 1361  N   1.55281   1.32701   1.29590   1.37696
 1362  H   0.65172
 1363  C   1.07401   0.98912   0.92711   0.99375
 1364  H   0.81707
 1365  C   1.05778   1.09589   1.06848   1.08600
 1366  H   0.84093
 1367  H   0.82980
 1368  C   1.06151   0.97100   0.97512   1.05665
 1369  C   1.08264   0.97391   1.07956   0.99838
 1370  H   0.84539
 1371  C   1.08398   1.08344   0.99509   1.00706
 1372  H   0.80254
 1373  C   1.06588   0.82533   0.89616   0.91706
 1374  O   1.84113   1.47081   1.54173   1.69672
 1375  H   0.63924
 1376  C   1.07407   0.99006   1.09215   1.06745
 1377  H   0.84628
 1378  C   1.08148   1.06441   0.99866   0.99733
 1379  H   0.85821
 1380  C   1.08188   0.77651   0.73410   0.82096
 1381  O   1.88476   1.39041   1.55588   1.82927
 1382  N   1.55036   1.20057   1.60170   1.14816
 1383  H   0.66081
 1384  C   1.08721   1.11707   1.03488   0.83734
 1385  H   0.82123
 1386  C   1.08257   0.83223   0.89073   1.00028
 1387  H   0.86794
 1388  C   1.05718   1.09862   1.14108   1.18961
 1389  H   0.83124
 1390  H   0.84532
 1391  H   0.84154
 1392  O   1.84702   1.32391   1.76610   1.66700
 1393  H   0.61659
 1394  C   1.08206   0.82809   0.76380   0.79201
 1395  O   1.88730   1.29189   1.70653   1.67750
 1396  N   1.54292   1.22802   1.27084   1.47581
 1397  H   0.64937
 1398  C   1.07062   0.98377   1.04053   1.07620
 1399  H   0.84410
 1400  H   0.80855
 1401  C   1.07036   0.85086   0.72012   0.75159
 1402  O   1.88495   1.70089   1.45758   1.55956
 1403  N   1.55353   1.14732   1.51366   1.33253
 1404  H   0.67990
 1405  C   1.07056   0.82924   0.98713   1.12839
 1406  H   0.81457
 1407  C   1.05339   1.16417   0.99042   1.05295
 1408  H   0.83898
 1409  H   0.83664
 1410  C   1.05978   1.20573   1.01177   1.13811
 1411  H   0.84237
 1412  H   0.82586
 1413  C   1.06686   0.72293   0.72046   0.72767
 1414  O   1.88760   1.47410   1.82389   1.63692
 1415  O   1.88505   1.51720   1.58629   1.81384
 1416  C   1.08680   0.77118   0.86254   0.75473
 1417  O   1.88735   1.64831   1.65282   1.40918
 1418  N   1.54586   1.31032   1.19196   1.47861
 1419  H   0.65331
 1420  C   1.07214   1.06276   0.88116   1.00753
 1421  H   0.84357
 1422  C   1.05449   1.01867   1.03232   0.97100
 1423  H   0.83632
 1424  C   1.05591   1.17746   1.04870   1.19328
 1425  H   0.84535
 1426  H   0.83577
 1427  H   0.83803
 1428  C   1.05455   1.18135   1.16760   1.06136
 1429  H   0.84075
 1430  H   0.83976
 1431  H   0.85193
 1432  C   1.07573   0.77106   0.73159   0.84221
 1433  O   1.88367   1.36381   1.63740   1.76953
 1434  N   1.53828   1.27319   1.47277   1.21105
 1435  H   0.66889
 1436  C   1.07707   1.00710   1.05462   0.86814
 1437  H   0.82268
 1438  C   1.06066   1.02662   1.01606   0.97679
 1439  H   0.84037
 1440  C   1.05420   1.18424   1.09830   1.12140
 1441  H   0.84085
 1442  H   0.84075
 1443  H   0.85069
 1444  C   1.05736   1.18973   1.16657   1.05251
 1445  H   0.84630
 1446  H   0.83546
 1447  H   0.83886
 1448  C   1.08157   0.80667   0.78645   0.75129
 1449  O   1.88318   1.81145   1.47311   1.46016
 1450  N   1.53603   1.23693   1.43137   1.31667
 1451  H   0.66471
 1452  C   1.07958   0.90435   0.96824   1.14836
 1453  H   0.80515
 1454  C   1.07970   0.93532   0.82462   0.98292
 1455  H   0.86701
 1456  C   1.05746   1.09502   1.13583   1.19624
 1457  H   0.82482
 1458  H   0.82199
 1459  H   0.84136
 1460  O   1.84757   1.47785   1.49384   1.78185
 1461  H   0.64861
 1462  C   1.07071   0.75364   0.82649   0.79810
 1463  O   1.88053   1.50732   1.88267   1.36454
 1464  N   1.53715   1.55010   1.12177   1.29442
 1465  H   0.65702
 1466  C   1.05411   1.16781   0.87315   1.13588
 1467  H   0.83023
 1468  H   0.83666
 1469  H   0.85120
 1470  H   0.82727
 1471  C   1.10849   0.72195   0.77565   0.90301
 1472  O   1.87918   1.50020   1.39716   1.89103
 1473  N   1.54808   1.50773   1.35867   1.13690
 1474  H   0.67065
 1475  C   1.07820   1.08321   1.04084   0.80198
 1476  H   0.80363
 1477  C   1.05901   1.13420   0.99957   1.10165
 1478  H   0.81861
 1479  H   0.82214
 1480  C   1.06593   0.97593   0.99301   1.00557
 1481  C   1.08233   0.99069   1.02466   1.00446
 1482  H   0.83759
 1483  C   1.07636   1.10513   1.04982   1.06623
 1484  H   0.82030
 1485  C   1.07256   0.88641   0.88190   0.87956
 1486  O   1.83869   1.35505   1.61295   1.73273
 1487  H   0.61907
 1488  C   1.07842   0.98863   1.10010   1.09720
 1489  H   0.82135
 1490  C   1.08817   1.07859   0.97884   0.96897
 1491  H   0.83517
 1492  C   1.08085   0.79998   0.76891   0.79201
 1493  O   1.88630   1.81383   1.69953   1.28030
 1494  N   1.53471   1.25584   1.50889   1.18461
 1495  H   0.67096
 1496  C   1.06143   0.92032   1.08959   1.16683
 1497  H   0.83436
 1498  H   0.82969
 1499  H   0.83840
 1500  H   0.82486
 1501  C   1.10804   0.78633   0.88375   0.71616
 1502  O   1.88011   1.43049   1.87065   1.50910
 1503  N   1.55068   1.37512   1.18534   1.44525
 1504  H   0.64441
 1505  C   1.07867   0.96574   0.86325   1.12907
 1506  H   0.81496
 1507  C   1.05975   0.97988   0.99669   1.07641
 1508  H   0.84637
 1509  C   1.05207   1.15822   1.06261   1.17612
 1510  H   0.84444
 1511  H   0.84456
 1512  H   0.84176
 1513  C   1.04784   0.99991   1.12970   1.08496
 1514  H   0.86677
 1515  H   0.85355
 1516  C   1.04905   1.11597   1.12959   1.14945
 1517  H   0.85868
 1518  H   0.85756
 1519  H   0.84107
 1520  C   1.07241   0.85959   0.73798   0.75025
 1521  O   1.87627   1.57602   1.55603   1.67379
 1522  N   1.54217   1.18499   1.41741   1.37462
 1523  H   0.66203
 1524  C   1.07135   0.87894   1.16328   1.10828
 1525  H   0.84316
 1526  H   0.83223
 1527  H   0.83418
 1528  H   0.82764
 1529  C   1.10754   0.84810   0.73325   0.82095
 1530  O   1.88533   1.81640   1.62635   1.36678
 1531  N   1.53779   1.25347   1.40298   1.30527
 1532  H   0.64789
 1533  C   1.05915   0.89158   1.04089   1.02445
 1534  H   0.81938
 1535  C   1.06064   1.03211   1.11495   1.11422
 1536  H   0.82485
 1537  H   0.84730
 1538  C   1.04452   0.99044   0.96301   1.06041
 1539  H   0.87981
 1540  C   1.05449   1.16248   1.06828   1.18063
 1541  H   0.83870
 1542  H   0.84807
 1543  H   0.85380
 1544  C   1.05253   1.12336   1.17264   1.10792
 1545  H   0.85724
 1546  H   0.84726
 1547  H   0.84145
 1548  C   1.07851   0.72951   0.86447   0.77467
 1549  O   1.88178   1.57668   1.45152   1.73557
 1550  N   1.54014   1.57204   1.21299   1.19382
 1551  H   0.66051
 1552  C   1.07173   1.02116   0.93467   0.96070
 1553  H   0.81159
 1554  C   1.05667   1.17052   1.07932   0.99267
 1555  H   0.82428
 1556  H   0.82679
 1557  C   1.05680   1.13000   1.08826   1.03629
 1558  H   0.85356
 1559  H   0.82361
 1560  C   1.06366   1.15814   0.94509   0.90229
 1561  H   0.81563
 1562  H   0.83638
 1563  N   1.52412   1.16126   1.42466   1.39828
 1564  H   0.63938
 1565  C   0.99155   0.79145   0.81259   0.81869
 1566  N   1.51737   1.11697   1.46803   1.48669
 1567  H   0.65526
 1568  H   0.63902
 1569  N   1.50862   1.25117   1.39993   1.41128
 1570  H   0.64167
 1571  H   0.64057
 1572  C   1.08205   0.87284   0.77289   0.74630
 1573  O   1.88795   1.60634   1.59732   1.52393
 1574  N   1.53984   1.17456   1.27184   1.51700
 1575  H   0.65765
 1576  C   1.07430   0.85713   1.08616   1.03789
 1577  H   0.82125
 1578  C   1.06139   1.16378   1.09820   0.98440
 1579  H   0.84231
 1580  H   0.83871
 1581  C   1.04758   1.08156   0.95981   0.94839
 1582  H   0.86936
 1583  C   1.05593   1.17136   1.16306   1.07743
 1584  H   0.85395
 1585  H   0.86080
 1586  H   0.84717
 1587  C   1.05675   1.15748   1.09292   1.15825
 1588  H   0.85052
 1589  H   0.86053
 1590  H   0.84678
 1591  C   1.08297   0.71454   0.76140   0.70261
 1592  O   1.88394   1.46788   1.86961   1.62342
 1593  O   1.88760   1.54738   1.59424   1.80325

 **********************
 *                    *
 * JOB ENDED NORMALLY *
 *                    *
 **********************



 TOTAL JOB TIME:          2974.47 SECONDS

 == MOPAC DONE ==
