 *******************************************************************************
 **                                                                           **
 **                              MOPAC v23.2.2                                **
 **                                                                           **
 *******************************************************************************
 **          Digital Object Identifier (DOI): 10.5281/zenodo.6511958          **
 **    Visit the DOI location for information on how to cite this program.    **
 *******************************************************************************

                              PM7 CALCULATION RESULTS

 *******************************************************************************
 *  CALCULATION DONE: (MAX THREADS = 24)             Thu Jan 22 18:49:11 2026  *
 *  PM7        - The PM7 Hamiltonian to be used
 *
 *
 *
 *                 CHARGE ON SYSTEM = +2
 *
 *
 *
 *  EPS=78.4   - USE ANDREAS KLAMT'S COSMO IMPLICIT SOLVATION MODEL
 *  XYZ        - CARTESIAN COORDINATE SYSTEM TO BE USED
 *  1SCF       - DO 1 SCF AND THEN STOP 
 *  T=         - A TIME OF 172800.0 SECONDS REQUESTED
 *  DUMP=N     - RESTART FILE WRITTEN EVERY 7200.0 SECONDS REQUESTED
 *******************************************************************************
PM7 1SCF XYZ CHARGE=2 EPS=78.4


   ATOM   CHEMICAL          X               Y               Z
  NUMBER   SYMBOL      (ANGSTROMS)     (ANGSTROMS)     (ANGSTROMS)

     1       H         71.69100000  *  165.23700000  * -45.36000000  *
     2       C         70.72700000  *  165.64400000  * -45.02500000  *
     3       O         70.67100000  *  166.69300000  * -44.40000000  *
     4       N         69.64800000  *  164.94600000  * -45.35400000  *
     5       H         69.74300000  *  164.08600000  * -45.86500000  *
     6       C         68.31800000  *  165.37700000  * -44.95100000  *
     7       H         68.30400000  *  166.44500000  * -44.75000000  *
     8       C         67.27900000  *  165.08100000  * -46.05800000  *
     9       H         67.27200000  *  164.02200000  * -46.29800000  *
    10       C         65.89200000  *  165.46600000  * -45.59200000  *
    11       H         65.46400000  *  166.22900000  * -46.24500000  *
    12       H         65.23700000  *  164.60600000  * -45.62700000  *
    13       H         65.87600000  *  165.89500000  * -44.58400000  *
    14       C         67.63700000  *  165.85600000  * -47.31700000  *
    15       H         68.59400000  *  165.52900000  * -47.70800000  *
    16       H         66.87900000  *  165.66900000  * -48.07700000  *
    17       H         67.68800000  *  166.92100000  * -47.10100000  *
    18       C         67.91500000  *  164.66400000  * -43.65700000  *
    19       O         67.55300000  *  165.30600000  * -42.67600000  *
    20       N         67.98400000  *  163.33800000  * -43.65800000  *
    21       H         68.28400000  *  162.85200000  * -44.48600000  *
    22       C         67.62300000  *  162.54400000  * -42.48700000  *
    23       H         67.90600000  *  163.07600000  * -41.58100000  *
    24       C         66.12800000  *  162.23500000  * -42.45900000  *
    25       H         65.92600000  *  161.47400000  * -43.20900000  *
    26       H         65.88500000  *  161.80700000  * -41.48800000  *
    27       C         65.21300000  *  163.39800000  * -42.74000000  *
    28       H         65.33100000  *  164.15700000  * -41.96400000  *
    29       H         65.45900000  *  163.81400000  * -43.69700000  *
    30       C         63.76600000  *  162.97200000  * -42.82400000  *
    31       O         63.44700000  *  162.11400000  * -43.67900000  *
    32       O         62.94800000  *  163.49400000  * -42.03400000  *
    33       C         68.34700000  *  161.22200000  * -42.57700000  *
    34       O         68.73000000  *  160.78800000  * -43.66100000  *
    35       N         68.52400000  *  160.57500000  * -41.43500000  *
    36       H         68.03000000  *  160.89100000  * -40.60600000  *
    37       C         69.17300000  *  159.28200000  * -41.42100000  *
    38       H         69.95100000  *  159.22100000  * -42.17800000  *
    39       C         69.75600000  *  159.01000000  * -40.03200000  *
    40       H         70.21900000  *  159.94300000  * -39.71800000  *
    41       H         68.96300000  *  158.79100000  * -39.31600000  *
    42       C         70.79800000  *  157.89600000  * -39.98300000  *
    43       H         70.31100000  *  156.94100000  * -40.17400000  *
    44       H         71.53800000  *  158.07300000  * -40.76900000  *
    45       C         71.50100000  *  157.83200000  * -38.61800000  *
    46       H         70.74900000  *  157.59000000  * -37.86000000  *
    47       H         72.23100000  *  157.01800000  * -38.63800000  *
    48       C         72.18600000  *  159.16200000  * -38.26900000  *
    49       H         72.83200000  *  159.42500000  * -39.10900000  *
    50       H         71.41200000  *  159.93100000  * -38.15600000  *
    51       N         73.00000000  *  159.10500000  * -37.02500000  *
    52       H         73.70000000  *  158.37000000  * -37.07400000  *
    53       H         73.43800000  *  159.98800000  * -36.79300000  *
    54       H         72.39100000  *  158.85400000  * -36.25100000  *
    55       C         68.06200000  *  158.28700000  * -41.74800000  *
    56       O         67.16300000  *  158.08100000  * -40.94600000  *
    57       N         68.05200000  *  157.71000000  * -42.95400000  *
    58       H         68.86100000  *  157.84800000  * -43.54000000  *
    59       C         67.02800000  *  156.73400000  * -43.39200000  *
    60       H         66.05700000  *  157.23300000  * -43.40100000  *
    61       C         67.31400000  *  156.21900000  * -44.82500000  *
    62       H         68.38900000  *  156.09700000  * -44.94400000  *
    63       C         66.65000000  *  154.86600000  * -45.12900000  *
    64       H         65.57600000  *  154.92900000  * -44.95100000  *
    65       H         66.82300000  *  154.59600000  * -46.16300000  *
    66       H         67.07700000  *  154.06900000  * -44.52100000  *
    67       C         66.82000000  *  157.26300000  * -45.83900000  *
    68       H         65.72800000  *  157.27100000  * -45.85500000  *
    69       H         67.15100000  *  158.23400000  * -45.48900000  *
    70       C         67.34200000  *  157.05800000  * -47.26900000  *
    71       H         66.91700000  *  156.16000000  * -47.71200000  *
    72       H         67.05600000  *  157.90800000  * -47.88500000  *
    73       H         68.42700000  *  156.97800000  * -47.26500000  *
    74       C         66.90100000  *  155.57300000  * -42.40500000  *
    75       O         65.79700000  *  155.22700000  * -41.98100000  *
    76       N         68.03200000  *  154.95400000  * -42.07200000  *
    77       H         68.91200000  *  155.30200000  * -42.43600000  *
    78       C         68.04900000  *  153.70500000  * -41.32900000  *
    79       H         67.42800000  *  153.80800000  * -40.43800000  *
    80       H         67.63500000  *  152.91000000  * -41.95000000  *
    81       C         69.45000000  *  153.29400000  * -40.90700000  *
    82       O         70.45100000  *  153.60300000  * -41.55900000  *
    83       N         69.49900000  *  152.56600000  * -39.80100000  *
    84       H         68.62900000  *  152.34800000  * -39.33400000  *
    85       C         70.70900000  *  151.94100000  * -39.28900000  *
    86       H         71.55100000  *  152.60500000  * -39.48000000  *
    87       C         70.56600000  *  151.76200000  * -37.76900000  *
    88       H         69.70000000  *  151.13600000  * -37.55400000  *
    89       H         71.46200000  *  151.27600000  * -37.40300000  *
    90       C         70.43700000  *  153.10700000  * -37.03100000  *
    91       H         71.31000000  *  153.71800000  * -37.27400000  *
    92       H         69.55100000  *  153.63700000  * -37.38700000  *
    93       C         70.32600000  *  152.93600000  * -35.50700000  *
    94       O         69.45400000  *  152.17300000  * -35.03200000  *
    95       O         71.08400000  *  153.60600000  * -34.76700000  *
    96       C         70.94200000  *  150.62600000  * -40.05800000  *
    97       O         70.19400000  *  149.65900000  * -39.89700000  *
    98       N         71.88700000  *  150.64200000  * -41.00500000  *
    99       H         72.51300000  *  151.43600000  * -41.05500000  *
   100       C         71.95000000  *  149.68000000  * -42.11200000  *
   101       H         70.93500000  *  149.42800000  * -42.42300000  *
   102       H         72.43500000  *  150.17200000  * -42.95500000  *
   103       C         72.69900000  *  148.37000000  * -41.83500000  *
   104       O         73.12100000  *  148.06700000  * -40.72000000  *
   105       N         72.88900000  *  147.58500000  * -42.89800000  *
   106       H         72.48000000  *  147.86200000  * -43.78100000  *
   107       C         73.64000000  *  146.31200000  * -42.89800000  *
   108       H         73.33300000  *  145.72000000  * -42.03500000  *
   109       C         73.33200000  *  145.50100000  * -44.16700000  *
   110       H         74.06600000  *  144.70300000  * -44.28400000  *
   111       C         71.94600000  *  144.87500000  * -44.07300000  *
   112       H         71.18000000  *  145.65100000  * -44.03200000  *
   113       H         71.77900000  *  144.23700000  * -44.94000000  *
   114       H         71.90600000  *  144.25600000  * -43.17900000  *
   115       O         73.37500000  *  146.34600000  * -45.29200000  *
   116       H         73.01000000  *  145.83500000  * -46.05100000  *
   117       C         75.15400000  *  146.47700000  * -42.79600000  *
   118       O         75.78500000  *  145.69300000  * -42.09600000  *
   119       N         75.72700000  *  147.48700000  * -43.46300000  *
   120       H         75.11700000  *  148.02100000  * -44.06100000  *
   121       C         77.18300000  *  147.69900000  * -43.59600000  *
   122       H         77.70300000  *  147.09200000  * -42.85400000  *
   123       C         77.63500000  *  147.22600000  * -44.99100000  *
   124       H         77.21500000  *  147.89400000  * -45.74300000  *
   125       H         78.72200000  *  147.30300000  * -45.05700000  *
   126       C         77.26200000  *  145.79600000  * -45.32900000  *
   127       C         77.69600000  *  144.75400000  * -44.49000000  *
   128       H         78.28800000  *  144.97100000  * -43.61000000  *
   129       C         77.35100000  *  143.42600000  * -44.78600000  *
   130       H         77.67300000  *  142.63500000  * -44.13000000  *
   131       C         76.59400000  *  143.12800000  * -45.93700000  *
   132       O         76.34300000  *  141.83200000  * -46.25400000  *
   133       H         77.00900000  *  141.26900000  * -45.82900000  *
   134       C         76.13900000  *  144.17300000  * -46.76700000  *
   135       H         75.53300000  *  143.95200000  * -47.63100000  *
   136       C         76.47800000  *  145.50500000  * -46.46400000  *
   137       H         76.13600000  *  146.30400000  * -47.10600000  *
   138       C         77.63400000  *  149.15000000  * -43.34500000  *
   139       O         78.74000000  *  149.53700000  * -43.72200000  *
   140       N         76.77800000  *  149.96600000  * -42.72500000  *
   141       H         75.90100000  *  149.59000000  * -42.39500000  *
   142       C         77.01500000  *  151.38700000  * -42.47400000  *
   143       H         77.60900000  *  151.50700000  * -41.57000000  *
   144       H         77.57800000  *  151.80200000  * -43.30000000  *
   145       C         75.70800000  *  152.16600000  * -42.30900000  *
   146       O         74.65900000  *  151.56500000  * -42.05900000  *
   147       N         75.75500000  *  153.49500000  * -42.44900000  *
   148       H         76.58800000  *  153.89400000  * -42.85900000  *
   149       C         74.59200000  *  154.32600000  * -42.21200000  *
   150       H         73.82600000  *  153.78000000  * -41.65800000  *
   151       C         74.95900000  *  155.54800000  * -41.37000000  *
   152       H         75.70700000  *  156.13900000  * -41.89300000  *
   153       C         73.73100000  *  156.40900000  * -41.13300000  *
   154       H         72.94300000  *  155.80300000  * -40.68200000  *
   155       H         73.98600000  *  157.21200000  * -40.45000000  *
   156       H         73.36800000  *  156.84900000  * -42.06500000  *
   157       C         75.54500000  *  155.09600000  * -40.05300000  *
   158       H         76.46000000  *  154.52800000  * -40.19800000  *
   159       H         75.77700000  *  155.95300000  * -39.42300000  *
   160       H         74.80500000  *  154.48400000  * -39.53200000  *
   161       C         74.01900000  *  154.79200000  * -43.53700000  *
   162       O         74.76100000  *  155.18400000  * -44.43700000  *
   163       N         72.69800000  *  154.64800000  * -43.67500000  *
   164       H         72.17100000  *  154.30000000  * -42.88100000  *
   165       C         71.91300000  *  155.09400000  * -44.83200000  *
   166       H         72.56900000  *  155.14900000  * -45.69900000  *
   167       C         70.75900000  *  154.11800000  * -45.16000000  *
   168       H         69.92000000  *  154.31600000  * -44.49500000  *
   169       C         70.29300000  *  154.33800000  * -46.60500000  *
   170       H         71.09300000  *  154.09000000  * -47.30200000  *
   171       H         69.43000000  *  153.70500000  * -46.81400000  *
   172       H         70.00600000  *  155.37700000  * -46.75600000  *
   173       C         71.11900000  *  152.63700000  * -44.98700000  *
   174       H         71.30200000  *  152.41600000  * -43.93600000  *
   175       H         70.28200000  *  152.01900000  * -45.31400000  *
   176       H         72.00400000  *  152.38900000  * -45.56700000  *
   177       C         71.34900000  *  156.48400000  * -44.54100000  *
   178       O         70.61800000  *  156.63700000  * -43.55900000  *
   179       N         71.62500000  *  157.49000000  * -45.37400000  *
   180       H         72.23900000  *  157.32200000  * -46.16900000  *
   181       C         71.01800000  *  158.79600000  * -45.21900000  *
   182       H         70.37900000  *  158.84300000  * -44.33800000  *
   183       C         72.10000000  *  159.86100000  * -45.06900000  *
   184       H         72.79900000  *  159.78100000  * -45.90500000  *
   185       H         71.63400000  *  160.84400000  * -45.14300000  *
   186       C         72.87100000  *  159.84300000  * -43.76800000  *
   187       C         72.34700000  *  160.43100000  * -42.61900000  *
   188       H         71.37700000  *  160.90600000  * -42.66800000  *
   189       C         73.06400000  *  160.45200000  * -41.42500000  *
   190       H         72.63300000  *  160.94600000  * -40.56800000  *
   191       C         74.33000000  *  159.87400000  * -41.37100000  *
   192       O         75.04700000  *  159.90100000  * -40.18700000  *
   193       H         74.69700000  *  160.54100000  * -39.56800000  *
   194       C         74.87500000  *  159.27800000  * -42.50300000  *
   195       H         75.78500000  *  158.71900000  * -42.41900000  *
   196       C         74.14000000  *  159.26700000  * -43.69600000  *
   197       H         74.51800000  *  158.73300000  * -44.56500000  *
   198       C         70.16700000  *  159.17400000  * -46.42900000  *
   199       O         70.41800000  *  158.72400000  * -47.55600000  *
   200       N         69.03200000  *  159.83700000  * -46.21300000  *
   201       H         68.84500000  *  160.14400000  * -45.26500000  *
   202       C         68.29400000  *  160.51200000  * -47.28100000  *
   203       H         68.28600000  *  159.91000000  * -48.19200000  *
   204       C         66.85000000  *  160.83500000  * -46.84700000  *
   205       H         66.33500000  *  159.91500000  * -46.58500000  *
   206       H         66.86600000  *  161.47700000  * -45.96400000  *
   207       C         66.03900000  *  161.51700000  * -47.96000000  *
   208       H         66.51000000  *  162.46100000  * -48.23800000  *
   209       H         66.01500000  *  160.86500000  * -48.83400000  *
   210       C         64.60200000  *  161.79200000  * -47.48700000  *
   211       H         64.14900000  *  160.85900000  * -47.14700000  *
   212       H         64.63100000  *  162.49200000  * -46.65100000  *
   213       C         63.75900000  *  162.37900000  * -48.62700000  *
   214       H         64.27300000  *  163.25900000  * -49.02700000  *
   215       H         63.69200000  *  161.63300000  * -49.42600000  *
   216       N         62.39600000  *  162.75900000  * -48.16700000  *
   217       H         62.43400000  *  163.47100000  * -47.45100000  *
   218       H         61.84400000  *  163.13300000  * -48.92700000  *
   219       H         61.89700000  *  161.96800000  * -47.78600000  *
   220       C         69.09900000  *  161.76800000  * -47.51000000  *
   221       O         69.32800000  *  162.50300000  * -46.55300000  *
   222       N         69.55500000  *  162.00600000  * -48.72500000  *
   223       H         69.34400000  *  161.34200000  * -49.46700000  *
   224       C         70.34900000  *  163.18200000  * -49.01700000  *
   225       H         70.22500000  *  163.93500000  * -48.24000000  *
   226       C         71.81400000  *  162.79200000  * -49.07000000  *
   227       H         71.97800000  *  162.06700000  * -49.86400000  *
   228       H         72.42900000  *  163.67700000  * -49.23900000  *
   229       H         72.10500000  *  162.33200000  * -48.12600000  *
   230       C         69.94400000  *  163.83800000  * -50.32200000  *
   231       O         69.22100000  *  163.25100000  * -51.12800000  *
   232       N         70.40700000  *  165.06400000  * -50.52400000  *
   233       H         70.93200000  *  165.53000000  * -49.79600000  *
   234       C         70.10800000  *  165.77900000  * -51.74600000  *
   235       H         69.54100000  *  165.15900000  * -52.44400000  *
   236       H         69.52200000  *  166.69100000  * -51.53000000  *
   237       H         71.05900000  *  166.04700000  * -52.23900000  *
   238       H         68.08600000  *  164.80700000  * -56.55000000  *
   239       C         68.21200000  *  164.39600000  * -55.53600000  *
   240       O         69.28600000  *  164.50800000  * -54.94200000  *
   241       N         67.13500000  *  163.82300000  * -55.01100000  *
   242       H         66.34000000  *  163.66800000  * -55.61500000  *
   243       C         67.13600000  *  163.21200000  * -53.68800000  *
   244       H         67.86300000  *  163.70700000  * -53.05000000  *
   245       C         65.75500000  *  163.32300000  * -53.02900000  *
   246       H         64.97700000  *  163.06900000  * -53.75000000  *
   247       C         65.64800000  *  162.36600000  * -51.85200000  *
   248       H         66.47200000  *  162.51800000  * -51.15200000  *
   249       H         64.69700000  *  162.53800000  * -51.34700000  *
   250       H         65.65200000  *  161.33900000  * -52.20000000  *
   251       C         65.54000000  *  164.75000000  * -52.56600000  *
   252       H         65.62600000  *  165.42400000  * -53.41600000  *
   253       H         64.53500000  *  164.85100000  * -52.15900000  *
   254       H         66.28400000  *  165.00300000  * -51.81000000  *
   255       C         67.52600000  *  161.76000000  * -53.84700000  *
   256       O         66.97900000  *  161.02800000  * -54.68200000  *
   257       N         68.49600000  *  161.34900000  * -53.04800000  *
   258       H         68.91100000  *  161.99700000  * -52.39100000  *
   259       C         69.01100000  *  159.99200000  * -53.10200000  *
   260       H         68.34600000  *  159.34100000  * -53.67900000  *
   261       C         70.37400000  *  159.97400000  * -53.81600000  *
   262       H         70.77500000  *  158.96500000  * -53.87500000  *
   263       C         70.21400000  *  160.50700000  * -55.21300000  *
   264       H         69.95700000  *  161.56600000  * -55.19000000  *
   265       H         71.15100000  *  160.39100000  * -55.75600000  *
   266       H         69.44200000  *  159.95000000  * -55.73600000  *
   267       C         71.37900000  *  160.85000000  * -53.05700000  *
   268       H         71.56500000  *  160.44500000  * -52.06400000  *
   269       H         72.31500000  *  160.84900000  * -53.61300000  *
   270       H         71.03600000  *  161.88400000  * -52.98400000  *
   271       C         69.19200000  *  159.37200000  * -51.72900000  *
   272       O         69.02000000  *  160.03600000  * -50.68600000  *
   273       N         69.38400000  *  158.05900000  * -51.70300000  *
   274       H         69.46300000  *  157.56500000  * -52.58800000  *
   275       C         69.76100000  *  157.32500000  * -50.51100000  *
   276       H         69.48100000  *  157.88800000  * -49.62300000  *
   277       C         69.00700000  *  156.00500000  * -50.47600000  *
   278       H         69.24800000  *  155.43000000  * -51.36700000  *
   279       H         69.29100000  *  155.43700000  * -49.58800000  *
   280       H         67.93700000  *  156.20600000  * -50.44500000  *
   281       C         71.27700000  *  157.14100000  * -50.53700000  *
   282       O         71.81100000  *  156.46000000  * -51.41900000  *
   283       N         71.97000000  *  157.79100000  * -49.60300000  *
   284       H         71.44500000  *  158.28300000  * -48.88900000  *
   285       C         73.41300000  *  157.73400000  * -49.53500000  *
   286       H         73.80300000  *  157.43200000  * -50.50200000  *
   287       C         73.96100000  *  159.11400000  * -49.18200000  *
   288       H         73.49200000  *  159.84000000  * -49.85100000  *
   289       H         73.62800000  *  159.35800000  * -48.16900000  *
   290       C         75.47300000  *  159.31600000  * -49.26600000  *
   291       H         75.96900000  *  158.63700000  * -48.57100000  *
   292       C         75.94900000  *  159.02000000  * -50.68400000  *
   293       H         75.44100000  *  159.71800000  * -51.34800000  *
   294       H         77.02400000  *  159.18800000  * -50.76300000  *
   295       H         75.74700000  *  157.98700000  * -50.96800000  *
   296       C         75.80400000  *  160.74000000  * -48.87900000  *
   297       H         75.43700000  *  160.94600000  * -47.87600000  *
   298       H         76.88200000  *  160.87900000  * -48.92200000  *
   299       H         75.32000000  *  161.42900000  * -49.57600000  *
   300       C         73.82100000  *  156.71600000  * -48.48500000  *
   301       O         73.39600000  *  156.78100000  * -47.33400000  *
   302       N         74.66900000  *  155.77100000  * -48.87800000  *
   303       H         74.91900000  *  155.74900000  * -49.86400000  *
   304       C         75.12300000  *  154.65200000  * -48.04800000  *
   305       H         74.60500000  *  154.66500000  * -47.08700000  *
   306       C         74.76500000  *  153.35600000  * -48.80700000  *
   307       H         74.09700000  *  153.59500000  * -49.63900000  *
   308       H         75.66100000  *  152.91800000  * -49.24100000  *
   309       C         74.04900000  *  152.28900000  * -47.97800000  *
   310       H         73.26200000  *  152.75300000  * -47.38700000  *
   311       H         73.57600000  *  151.61000000  * -48.68700000  *
   312       C         75.01200000  *  151.50400000  * -47.07100000  *
   313       H         75.94400000  *  151.32500000  * -47.60400000  *
   314       H         75.24100000  *  152.11100000  * -46.19100000  *
   315       C         74.43100000  *  150.15100000  * -46.62400000  *
   316       H         75.12300000  *  149.70200000  * -45.90500000  *
   317       H         73.49000000  *  150.34300000  * -46.09700000  *
   318       N         74.21000000  *  149.22200000  * -47.77400000  *
   319       H         75.07500000  *  148.94700000  * -48.22500000  *
   320       H         73.71500000  *  148.35800000  * -47.51300000  *
   321       H         73.61100000  *  149.64000000  * -48.47500000  *
   322       C         76.62200000  *  154.81500000  * -47.78800000  *
   323       O         77.41400000  *  154.59700000  * -48.69700000  *
   324       N         77.01700000  *  155.22600000  * -46.58100000  *
   325       H         76.29800000  *  155.26800000  * -45.86500000  *
   326       C         78.42200000  *  155.28900000  * -46.15900000  *
   327       H         79.06600000  *  155.59300000  * -46.98900000  *
   328       C         78.56700000  *  156.26000000  * -44.97900000  *
   329       H         78.02700000  *  155.87500000  * -44.10900000  *
   330       H         79.62500000  *  156.33900000  * -44.73000000  *
   331       C         78.01500000  *  157.64300000  * -45.34000000  *
   332       H         78.45100000  *  157.95800000  * -46.27300000  *
   333       H         76.93600000  *  157.57500000  * -45.50000000  *
   334       C         78.25100000  *  158.72500000  * -44.27900000  *
   335       H         77.97800000  *  159.68000000  * -44.73200000  *
   336       H         77.56000000  *  158.53300000  * -43.46900000  *
   337       C         79.67700000  *  158.85000000  * -43.70900000  *
   338       H         80.38400000  *  158.36300000  * -44.39700000  *
   339       H         79.95000000  *  159.91100000  * -43.68600000  *
   340       N         79.78800000  *  158.26900000  * -42.33500000  *
   341       H         79.63700000  *  157.26100000  * -42.37000000  *
   342       H         80.69600000  *  158.42600000  * -41.93200000  *
   343       H         79.10400000  *  158.64600000  * -41.70100000  *
   344       C         78.82300000  *  153.89100000  * -45.72900000  *
   345       O         78.09100000  *  153.31500000  * -44.93700000  *
   346       N         79.90700000  *  153.32000000  * -46.24700000  *
   347       H         80.40500000  *  153.76400000  * -47.01000000  *
   348       C         80.34300000  *  152.02200000  * -45.76800000  *
   349       H         79.49500000  *  151.49800000  * -45.35900000  *
   350       C         80.94400000  *  151.18600000  * -46.89500000  *
   351       H         81.78600000  *  151.78200000  * -47.16900000  *
   352       C         81.42400000  *  149.85200000  * -46.34500000  *
   353       H         80.65600000  *  149.35200000  * -45.75200000  *
   354       H         81.67900000  *  149.19900000  * -47.17900000  *
   355       H         82.34500000  *  149.95700000  * -45.76100000  *
   356       C         79.89700000  *  150.97600000  * -47.99700000  *
   357       H         79.60200000  *  151.87000000  * -48.50000000  *
   358       H         80.28300000  *  150.30500000  * -48.75000000  *
   359       C         78.59100000  *  150.36100000  * -47.52600000  *
   360       H         78.17700000  *  150.90100000  * -46.69000000  *
   361       H         77.89400000  *  150.33700000  * -48.36300000  *
   362       H         78.77100000  *  149.33300000  * -47.20900000  *
   363       C         81.33300000  *  152.07100000  * -44.61400000  *
   364       O         82.16700000  *  152.98000000  * -44.51900000  *
   365       N         81.21100000  *  151.07100000  * -43.74300000  *
   366       H         80.50300000  *  150.36100000  * -43.92800000  *
   367       C         82.04400000  *  150.90200000  * -42.55200000  *
   368       H         81.47500000  *  151.18100000  * -41.66300000  *
   369       H         82.35800000  *  149.86100000  * -42.45900000  *
   370       H         82.94700000  *  151.51400000  * -42.62000000  *
   371       H         81.25700000  *  144.04600000  * -57.89900000  *
   372       C         80.50000000  *  144.84100000  * -57.88800000  *
   373       O         79.71500000  *  144.99000000  * -58.82400000  *
   374       N         80.49900000  *  145.60300000  * -56.79700000  *
   375       H         81.28000000  *  145.52500000  * -56.16600000  *
   376       C         79.57000000  *  146.70600000  * -56.61200000  *
   377       H         78.57500000  *  146.34400000  * -56.42300000  *
   378       C         80.00500000  *  147.61000000  * -55.44200000  *
   379       H         80.89800000  *  148.18000000  * -55.68500000  *
   380       C         78.90600000  *  148.60800000  * -55.12500000  *
   381       H         77.92000000  *  148.14100000  * -55.17600000  *
   382       H         79.04500000  *  148.98700000  * -54.11600000  *
   383       H         78.93800000  *  149.43600000  * -55.83300000  *
   384       C         80.32100000  *  146.76200000  * -54.20900000  *
   385       H         81.19200000  *  146.13400000  * -54.40600000  *
   386       H         80.59400000  *  147.42200000  * -53.38900000  *
   387       C         79.18400000  *  145.87900000  * -53.76500000  *
   388       H         78.77800000  *  145.31100000  * -54.59400000  *
   389       H         79.50900000  *  145.12200000  * -53.06500000  *
   390       H         78.38800000  *  146.48300000  * -53.33500000  *
   391       C         79.54300000  *  147.54500000  * -57.87900000  *
   392       O         78.48200000  *  147.77900000  * -58.45100000  *
   393       N         80.72300000  *  147.98900000  * -58.30900000  *
   394       H         81.55800000  *  147.70100000  * -57.81200000  *
   395       C         80.85900000  *  148.80400000  * -59.51100000  *
   396       H         80.33900000  *  149.74600000  * -59.38600000  *
   397       H         81.92800000  *  148.98500000  * -59.72900000  *
   398       H         80.37800000  *  148.32200000  * -60.38100000  *
   399       H         78.96400000  *  146.08700000  * -61.65600000  *
   400       C         77.87300000  *  146.08700000  * -61.51600000  *
   401       O         77.11500000  *  145.89500000  * -62.46400000  *
   402       N         77.44600000  *  146.31800000  * -60.28000000  *
   403       H         78.13400000  *  146.42500000  * -59.54900000  *
   404       C         76.02800000  *  146.35200000  * -59.94500000  *
   405       H         75.53300000  *  145.47600000  * -60.35900000  *
   406       C         75.84100000  *  146.37400000  * -58.43100000  *
   407       H         76.20500000  *  147.30400000  * -58.01800000  *
   408       H         74.76300000  *  146.35700000  * -58.24200000  *
   409       C         76.47200000  *  145.22200000  * -57.65900000  *
   410       H         77.55000000  *  145.23900000  * -57.74900000  *
   411       C         76.08000000  *  145.34100000  * -56.19200000  *
   412       H         74.99900000  *  145.23000000  * -56.07700000  *
   413       H         76.57300000  *  144.55300000  * -55.62900000  *
   414       H         76.38500000  *  146.30900000  * -55.80100000  *
   415       C         75.99600000  *  143.89000000  * -58.23600000  *
   416       H         76.41500000  *  143.73000000  * -59.22900000  *
   417       H         76.32800000  *  143.07800000  * -57.59100000  *
   418       H         74.90500000  *  143.87400000  * -58.30500000  *
   419       C         75.32200000  *  147.55900000  * -60.54800000  *
   420       O         74.09500000  *  147.56800000  * -60.66200000  *
   421       N         76.08400000  *  148.63100000  * -60.82900000  *
   422       H         77.08200000  *  148.53500000  * -60.67700000  *
   423       C         75.60100000  *  149.83300000  * -61.53400000  *
   424       H         74.83700000  *  150.33500000  * -60.94100000  *
   425       H         76.43800000  *  150.53300000  * -61.75900000  *
   426       H         75.13800000  *  149.54900000  * -62.49200000  *
   427       H         62.79000000  *  145.77200000  * -59.27600000  *
   428       C         63.71000000  *  145.72000000  * -58.67500000  *
   429       O         63.77900000  *  145.02200000  * -57.66400000  *
   430       N         64.72400000  *  146.45200000  * -59.11400000  *
   431       H         64.63800000  *  147.05100000  * -59.92700000  *
   432       C         65.97100000  *  146.53500000  * -58.38100000  *
   433       H         65.88400000  *  146.09200000  * -57.38600000  *
   434       C         67.11600000  *  145.87700000  * -59.11400000  *
   435       H         67.33600000  *  146.42600000  * -60.03000000  *
   436       C         68.35100000  *  145.87800000  * -58.21400000  *
   437       H         68.14700000  *  145.31400000  * -57.31800000  *
   438       H         69.21000000  *  145.44500000  * -58.72400000  *
   439       H         68.64100000  *  146.89000000  * -57.94500000  *
   440       C         66.72800000  *  144.44400000  * -59.47800000  *
   441       H         66.54900000  *  143.87300000  * -58.56400000  *
   442       H         65.81500000  *  144.42400000  * -60.06800000  *
   443       C         67.77400000  *  143.72700000  * -60.29600000  *
   444       H         68.68300000  *  143.57700000  * -59.72200000  *
   445       H         67.37700000  *  142.75300000  * -60.59800000  *
   446       H         68.02300000  *  144.31300000  * -61.18000000  *
   447       C         66.29500000  *  148.01000000  * -58.22000000  *
   448       O         66.21200000  *  148.78000000  * -59.18400000  *
   449       N         66.54900000  *  148.43900000  * -56.98200000  *
   450       H         66.62000000  *  147.75800000  * -56.23100000  *
   451       C         66.89000000  *  149.83500000  * -56.68600000  *
   452       H         66.07500000  *  150.48100000  * -57.01300000  *
   453       C         67.09900000  *  150.04300000  * -55.18100000  *
   454       H         67.89500000  *  149.38300000  * -54.83200000  *
   455       C         67.47900000  *  151.48600000  * -54.84100000  *
   456       H         66.65400000  *  152.16300000  * -55.06500000  *
   457       H         67.71600000  *  151.53700000  * -53.78200000  *
   458       H         68.35700000  *  151.80100000  * -55.40200000  *
   459       C         65.82000000  *  149.72500000  * -54.40500000  *
   460       H         65.54700000  *  148.68000000  * -54.51600000  *
   461       H         66.00000000  *  149.91600000  * -53.35300000  *
   462       H         65.00100000  *  150.34900000  * -54.75800000  *
   463       C         68.15000000  *  150.21100000  * -57.45900000  *
   464       O         69.17700000  *  149.53800000  * -57.34000000  *
   465       N         68.08000000  *  151.28300000  * -58.25100000  *
   466       H         67.22500000  *  151.80400000  * -58.24500000  *
   467       C         69.18900000  *  151.69800000  * -59.08000000  *
   468       H         69.52500000  *  150.81900000  * -59.63900000  *
   469       C         68.73700000  *  152.76800000  * -60.08300000  *
   470       H         67.83400000  *  152.41100000  * -60.57900000  *
   471       H         68.47700000  *  153.68100000  * -59.53700000  *
   472       C         69.79100000  *  153.06900000  * -61.13100000  *
   473       H         70.72100000  *  153.35000000  * -60.64200000  *
   474       H         69.97400000  *  152.16800000  * -61.71600000  *
   475       C         69.35100000  *  154.17900000  * -62.08100000  *
   476       H         68.50200000  *  153.81400000  * -62.66100000  *
   477       H         69.02300000  *  155.05600000  * -61.52200000  *
   478       C         70.49800000  *  154.55900000  * -63.02400000  *
   479       H         71.33900000  *  154.89000000  * -62.40800000  *
   480       H         70.81900000  *  153.66100000  * -63.56600000  *
   481       N         70.11800000  *  155.62600000  * -63.99700000  *
   482       H         69.74700000  *  156.41600000  * -63.48300000  *
   483       H         70.92600000  *  155.93300000  * -64.52500000  *
   484       H         69.41500000  *  155.27800000  * -64.63600000  *
   485       C         70.36000000  *  152.21400000  * -58.25300000  *
   486       O         70.19400000  *  153.07400000  * -57.38700000  *
   487       N         71.53700000  *  151.64500000  * -58.50700000  *
   488       H         71.59600000  *  150.90400000  * -59.18600000  *
   489       C         72.75000000  *  152.07400000  * -57.83600000  *
   490       H         72.53800000  *  152.52600000  * -56.87100000  *
   491       C         73.72700000  *  150.91100000  * -57.67000000  *
   492       H         73.31500000  *  150.22100000  * -56.93700000  *
   493       H         73.77900000  *  150.36900000  * -58.62000000  *
   494       C         75.16700000  *  151.27300000  * -57.28800000  *
   495       H         75.65500000  *  151.80300000  * -58.10000000  *
   496       C         75.18300000  *  152.16500000  * -56.05900000  *
   497       H         74.60800000  *  151.72100000  * -55.25200000  *
   498       H         76.21000000  *  152.29600000  * -55.73500000  *
   499       H         74.78900000  *  153.14000000  * -56.31200000  *
   500       C         75.93300000  *  149.99400000  * -57.01300000  *
   501       H         75.98300000  *  149.42100000  * -57.93300000  *
   502       H         76.94600000  *  150.24200000  * -56.71200000  *
   503       H         75.43500000  *  149.41000000  * -56.23200000  *
   504       C         73.31900000  *  153.11300000  * -58.79500000  *
   505       O         73.76900000  *  152.77900000  * -59.89700000  *
   506       N         73.26700000  *  154.36900000  * -58.37800000  *
   507       H         72.92600000  *  154.57000000  * -57.44900000  *
   508       C         73.73400000  *  155.46600000  * -59.19700000  *
   509       H         73.47500000  *  155.26500000  * -60.23600000  *
   510       C         73.02500000  *  156.74200000  * -58.76000000  *
   511       H         73.45000000  *  157.06300000  * -57.80900000  *
   512       H         73.23600000  *  157.53300000  * -59.48700000  *
   513       C         71.51300000  *  156.60300000  * -58.58700000  *
   514       H         71.27400000  *  155.80900000  * -57.88500000  *
   515       C         70.97400000  *  157.88000000  * -58.01900000  *
   516       H         71.37000000  *  158.74600000  * -58.56000000  *
   517       H         69.88800000  *  157.89100000  * -58.09300000  *
   518       H         71.22100000  *  157.96000000  * -56.96600000  *
   519       C         70.85100000  *  156.29000000  * -59.92300000  *
   520       H         71.28300000  *  155.39700000  * -60.34200000  *
   521       H         69.78900000  *  156.14400000  * -59.75100000  *
   522       H         71.00300000  *  157.12700000  * -60.60700000  *
   523       C         75.24500000  *  155.67800000  * -59.15800000  *
   524       O         75.83900000  *  156.04700000  * -60.17600000  *
   525       N         75.86200000  *  155.44600000  * -57.99600000  *
   526       H         75.29500000  *  155.17900000  * -57.20400000  *
   527       C         77.30800000  *  155.64700000  * -57.82900000  *
   528       H         77.80800000  *  155.40400000  * -58.76600000  *
   529       C         77.60000000  *  157.11700000  * -57.51900000  *
   530       H         76.91700000  *  157.54400000  * -56.80300000  *
   531       H         78.58200000  *  157.17000000  * -57.04800000  *
   532       C         77.65600000  *  157.97500000  * -58.75600000  *
   533       O         78.67800000  *  157.91700000  * -59.48300000  *
   534       O         76.67400000  *  158.70400000  * -59.00000000  *
   535       C         77.97900000  *  154.81700000  * -56.73400000  *
   536       O         77.37100000  *  154.52100000  * -55.70400000  *
   537       N         79.24700000  *  154.47700000  * -56.96600000  *
   538       H         79.69800000  *  154.82400000  * -57.79800000  *
   539       C         80.06100000  *  153.73800000  * -56.00300000  *
   540       H         79.55400000  *  153.69900000  * -55.05200000  *
   541       C         80.36600000  *  152.29800000  * -56.50400000  *
   542       H         79.42700000  *  151.75200000  * -56.56200000  *
   543       C         80.98100000  *  152.34300000  * -57.88400000  *
   544       H         82.06600000  *  152.43300000  * -57.82100000  *
   545       H         80.74600000  *  151.41400000  * -58.37900000  *
   546       H         80.59600000  *  153.14500000  * -58.51000000  *
   547       C         81.29900000  *  151.58800000  * -55.53900000  *
   548       H         80.81100000  *  151.54900000  * -54.57200000  *
   549       H         81.47300000  *  150.57200000  * -55.87800000  *
   550       H         82.25900000  *  152.09200000  * -55.44900000  *
   551       C         81.36500000  *  154.53600000  * -55.81000000  *
   552       O         82.27000000  *  154.48900000  * -56.64700000  *
   553       N         81.45200000  *  155.28200000  * -54.71000000  *
   554       H         80.67600000  *  155.30400000  * -54.06400000  *
   555       C         82.62100000  *  156.11100000  * -54.44300000  *
   556       H         83.20500000  *  156.21800000  * -55.35800000  *
   557       H         82.32200000  *  157.12800000  * -54.14500000  *
   558       H         83.29700000  *  155.73900000  * -53.65600000  *
   559       H         84.58000000  *  155.17100000  * -47.07300000  *
   560       C         84.22500000  *  154.98400000  * -48.09100000  *
   561       O         84.63900000  *  155.65900000  * -49.04200000  *
   562       N         83.35800000  *  153.99100000  * -48.22200000  *
   563       H         83.13600000  *  153.42800000  * -47.41700000  *
   564       C         82.77600000  *  153.65100000  * -49.50600000  *
   565       H         83.37000000  *  154.04700000  * -50.31700000  *
   566       C         82.71900000  *  152.14000000  * -49.66000000  *
   567       H         83.74000000  *  151.87500000  * -49.95700000  *
   568       H         82.64400000  *  151.54600000  * -48.78400000  *
   569       C         81.82600000  *  151.61900000  * -50.77900000  *
   570       H         80.79100000  *  151.88400000  * -50.58700000  *
   571       C         82.25800000  *  152.23100000  * -52.09200000  *
   572       H         83.31100000  *  152.49100000  * -52.08900000  *
   573       H         82.09300000  *  151.51300000  * -52.88400000  *
   574       H         81.65400000  *  153.10900000  * -52.31200000  *
   575       C         81.89900000  *  150.09400000  * -50.82200000  *
   576       H         81.91300000  *  149.66400000  * -49.82700000  *
   577       H         81.05200000  *  149.70600000  * -51.39100000  *
   578       H         82.82500000  *  149.80300000  * -51.32100000  *
   579       C         81.36700000  *  154.23200000  * -49.54800000  *
   580       O         80.51800000  *  153.85700000  * -48.74500000  *
   581       N         81.13100000  *  155.16100000  * -50.46700000  *
   582       H         81.84500000  *  155.34800000  * -51.16200000  *
   583       C         79.82200000  *  155.78100000  * -50.60800000  *
   584       H         79.27400000  *  155.67000000  * -49.68700000  *
   585       C         79.96700000  *  157.27800000  * -50.86800000  *
   586       H         80.42300000  *  157.50400000  * -51.79700000  *
   587       H         78.95400000  *  157.66400000  * -50.98900000  *
   588       C         80.57600000  *  158.04300000  * -49.72300000  *
   589       C         79.79300000  *  158.48000000  * -48.65600000  *
   590       H         78.73500000  *  158.25400000  * -48.66900000  *
   591       C         80.35600000  *  159.18600000  * -47.59400000  *
   592       H         79.75300000  *  159.56200000  * -46.79700000  *
   593       C         81.71600000  *  159.45200000  * -47.58700000  *
   594       O         82.27600000  *  160.12500000  * -46.52100000  *
   595       H         83.20600000  *  160.30800000  * -46.74500000  *
   596       C         82.51400000  *  159.02600000  * -48.63700000  *
   597       H         83.58200000  *  159.23300000  * -48.65000000  *
   598       C         81.94100000  *  158.32800000  * -49.69800000  *
   599       H         82.57400000  *  157.98100000  * -50.50200000  *
   600       C         79.04800000  *  155.15800000  * -51.76500000  *
   601       O         79.54400000  *  155.08000000  * -52.88800000  *
   602       N         77.86400000  *  154.61700000  * -51.49400000  *
   603       H         77.54100000  *  154.62800000  * -50.53200000  *
   604       C         76.98300000  *  154.05500000  * -52.51700000  *
   605       H         77.50900000  *  154.01000000  * -53.46300000  *
   606       C         76.54300000  *  152.62100000  * -52.17600000  *
   607       H         75.83500000  *  152.66000000  * -51.35700000  *
   608       H         76.01300000  *  152.22300000  * -53.04200000  *
   609       C         77.67300000  *  151.64800000  * -51.80300000  *
   610       H         78.17500000  *  151.99100000  * -50.89800000  *
   611       C         77.09900000  *  150.25700000  * -51.54000000  *
   612       H         76.61600000  *  149.87300000  * -52.44000000  *
   613       H         77.90000000  *  149.57700000  * -51.24700000  *
   614       H         76.37100000  *  150.30700000  * -50.73300000  *
   615       C         78.69500000  *  151.52900000  * -52.92700000  *
   616       H         79.21500000  *  152.47600000  * -53.05100000  *
   617       H         79.42900000  *  150.76800000  * -52.67300000  *
   618       H         78.19500000  *  151.26500000  * -53.86000000  *
   619       C         75.78700000  *  154.98600000  * -52.67200000  *
   620       O         75.10400000  *  155.25800000  * -51.68100000  *
   621       N         75.54700000  *  155.50800000  * -53.87800000  *
   622       H         76.14500000  *  155.25500000  * -54.66000000  *
   623       C         74.40900000  *  156.37500000  * -54.09400000  *
   624       H         73.97600000  *  156.70200000  * -53.15000000  *
   625       C         74.83400000  *  157.63700000  * -54.81800000  *
   626       H         75.25500000  *  157.34500000  * -55.76600000  *
   627       C         73.61400000  *  158.52200000  * -55.10900000  *
   628       H         73.11700000  *  158.76900000  * -54.17500000  *
   629       H         73.94100000  *  159.43100000  * -55.61500000  *
   630       H         72.91600000  *  158.00900000  * -55.76200000  *
   631       C         75.84000000  *  158.38200000  * -53.94900000  *
   632       H         75.28100000  *  158.78400000  * -53.13000000  *
   633       H         76.65600000  *  157.75800000  * -53.60500000  *
   634       H         76.26100000  *  159.20400000  * -54.52500000  *
   635       C         73.31400000  *  155.64400000  * -54.85300000  *
   636       O         73.49500000  *  155.22100000  * -55.99400000  *
   637       N         72.21100000  *  155.38100000  * -54.16000000  *
   638       H         72.14100000  *  155.73200000  * -53.20900000  *
   639       C         71.03400000  *  154.71500000  * -54.70600000  *
   640       H         71.28600000  *  154.25500000  * -55.65700000  *
   641       C         70.57000000  *  153.61600000  * -53.74600000  *
   642       H         70.42400000  *  154.04900000  * -52.75700000  *
   643       H         69.60000000  *  153.25800000  * -54.08600000  *
   644       C         71.50000000  *  152.42300000  * -53.62700000  *
   645       C         71.36400000  *  151.33300000  * -54.50800000  *
   646       H         70.62500000  *  151.35800000  * -55.29500000  *
   647       C         72.18100000  *  150.19700000  * -54.36300000  *
   648       H         72.06500000  *  149.35700000  * -55.03600000  *
   649       C         73.14400000  *  150.15000000  * -53.34100000  *
   650       H         73.77300000  *  149.27600000  * -53.23000000  *
   651       C         73.28600000  *  151.23900000  * -52.46400000  *
   652       H         74.01800000  *  151.19500000  * -51.67200000  *
   653       C         72.47000000  *  152.37700000  * -52.60700000  *
   654       H         72.58000000  *  153.20900000  * -51.92500000  *
   655       C         69.91100000  *  155.72700000  * -54.94400000  *
   656       O         69.77200000  *  156.69600000  * -54.19600000  *
   657       N         69.08600000  *  155.51100000  * -55.97000000  *
   658       H         69.24000000  *  154.69000000  * -56.54700000  *
   659       C         67.82300000  *  156.25300000  * -56.11300000  *
   660       H         68.06500000  *  157.30200000  * -56.28600000  *
   661       C         67.03300000  *  155.74900000  * -57.33400000  *
   662       H         66.16900000  *  156.40100000  * -57.46300000  *
   663       H         67.66100000  *  155.83000000  * -58.22200000  *
   664       C         66.54800000  *  154.29800000  * -57.19100000  *
   665       H         67.41700000  *  153.64800000  * -57.07700000  *
   666       H         65.94200000  *  154.20900000  * -56.29300000  *
   667       C         65.68900000  *  153.80400000  * -58.35700000  *
   668       O         65.17700000  *  154.61700000  * -59.16000000  *
   669       O         65.48600000  *  152.57100000  * -58.43600000  *
   670       C         66.98700000  *  156.16800000  * -54.81900000  *
   671       O         66.91900000  *  155.11100000  * -54.18700000  *
   672       N         66.36500000  *  157.26600000  * -54.38800000  *
   673       H         66.40700000  *  158.11400000  * -54.93600000  *
   674       C         65.50400000  *  157.25000000  * -53.20200000  *
   675       H         65.98000000  *  156.63700000  * -52.43400000  *
   676       C         65.37700000  *  158.66700000  * -52.63800000  *
   677       H         66.37100000  *  159.03200000  * -52.38700000  *
   678       H         64.96400000  *  159.31900000  * -53.40900000  *
   679       C         64.51400000  *  158.76200000  * -51.39400000  *
   680       C         63.20400000  *  159.27200000  * -51.47500000  *
   681       H         62.80600000  *  159.60200000  * -52.42500000  *
   682       C         62.40500000  *  159.35000000  * -50.32100000  *
   683       H         61.39800000  *  159.74000000  * -50.38800000  *
   684       C         62.91200000  *  158.91600000  * -49.08400000  *
   685       H         62.29600000  *  158.97300000  * -48.19600000  *
   686       C         64.22100000  *  158.40900000  * -49.00000000  *
   687       H         64.61100000  *  158.08000000  * -48.04700000  *
   688       C         65.02100000  *  158.33100000  * -50.15400000  *
   689       H         66.02700000  *  157.94000000  * -50.08800000  *
   690       C         64.12600000  *  156.63800000  * -53.50400000  *
   691       O         63.47600000  *  157.01300000  * -54.48300000  *
   692       N         63.66100000  *  155.74400000  * -52.62800000  *
   693       H         64.26900000  *  155.46900000  * -51.86600000  *
   694       C         62.26700000  *  155.29200000  * -52.55500000  *
   695       H         61.66700000  *  155.83100000  * -53.29100000  *
   696       C         62.15200000  *  153.78600000  * -52.84600000  *
   697       H         62.90100000  *  153.24900000  * -52.26800000  *
   698       H         61.16900000  *  153.46300000  * -52.49900000  *
   699       C         62.27500000  *  153.42900000  * -54.34100000  *
   700       H         61.89100000  *  154.24900000  * -54.94600000  *
   701       C         63.72400000  *  153.14400000  * -54.73500000  *
   702       H         64.12700000  *  152.34400000  * -54.11700000  *
   703       H         63.77700000  *  152.86500000  * -55.78700000  *
   704       H         64.32900000  *  154.03600000  * -54.58900000  *
   705       C         61.45000000  *  152.18100000  * -54.66600000  *
   706       H         60.40900000  *  152.34000000  * -54.38100000  *
   707       H         61.48300000  *  151.98900000  * -55.73700000  *
   708       H         61.83900000  *  151.31600000  * -54.13000000  *
   709       C         61.69000000  *  155.63400000  * -51.17700000  *
   710       O         62.40200000  *  155.63100000  * -50.17500000  *
   711       N         60.40700000  *  155.98400000  * -51.14000000  *
   712       H         59.89200000  *  155.98100000  * -52.01200000  *
   713       C         59.77600000  *  156.68300000  * -50.01600000  *
   714       H         60.43000000  *  157.50400000  * -49.72200000  *
   715       C         58.45900000  *  157.30000000  * -50.50600000  *
   716       H         57.72700000  *  156.50200000  * -50.63900000  *
   717       H         58.09300000  *  157.98000000  * -49.74000000  *
   718       C         58.56400000  *  158.05700000  * -51.81100000  *
   719       N         58.58600000  *  157.47600000  * -53.08500000  *
   720       C         58.71400000  *  158.49500000  * -53.95200000  *
   721       H         58.76100000  *  158.39300000  * -55.03100000  *
   722       N         58.77900000  *  159.66400000  * -53.29200000  *
   723       H         58.87500000  *  160.57600000  * -53.72900000  *
   724       C         58.69100000  *  159.40800000  * -51.94200000  *
   725       H         58.71700000  *  160.13200000  * -51.13600000  *
   726       C         59.55100000  *  155.84300000  * -48.74500000  *
   727       O         59.45100000  *  156.41500000  * -47.65900000  *
   728       N         59.45800000  *  154.51300000  * -48.85700000  *
   729       H         59.56500000  *  154.10300000  * -49.77500000  *
   730       C         59.09700000  *  153.60600000  * -47.75600000  *
   731       H         59.56200000  *  153.96600000  * -46.83800000  *
   732       C         57.56500000  *  153.64800000  * -47.56900000  *
   733       H         57.28500000  *  154.66400000  * -47.28700000  *
   734       H         57.07300000  *  153.41300000  * -48.51400000  *
   735       C         57.04400000  *  152.68300000  * -46.49200000  *
   736       H         56.91700000  *  151.69600000  * -46.93200000  *
   737       H         57.77400000  *  152.61400000  * -45.68700000  *
   738       C         55.72700000  *  153.14100000  * -45.87600000  *
   739       O         55.68800000  *  153.84400000  * -44.88000000  *
   740       N         54.59600000  *  152.76600000  * -46.43400000  *
   741       H         53.74700000  *  153.09100000  * -45.99800000  *
   742       H         54.59700000  *  152.21600000  * -47.27400000  *
   743       C         59.61200000  *  152.17400000  * -47.99700000  *
   744       O         59.68100000  *  151.72200000  * -49.14300000  *
   745       N         59.96000000  *  151.45200000  * -46.92500000  *
   746       H         59.86100000  *  151.88000000  * -46.00500000  *
   747       C         60.28700000  *  150.01900000  * -46.99200000  *
   748       H         60.58400000  *  149.79700000  * -48.01300000  *
   749       C         61.51200000  *  149.68600000  * -46.12200000  *
   750       H         61.83900000  *  148.67800000  * -46.38200000  *
   751       H         62.32200000  *  150.36600000  * -46.39300000  *
   752       C         61.28700000  *  149.74100000  * -44.60700000  *
   753       O         60.31000000  *  149.13500000  * -44.12000000  *
   754       O         62.14000000  *  150.33600000  * -43.90700000  *
   755       C         59.07800000  *  149.10600000  * -46.69600000  *
   756       O         58.04600000  *  149.53900000  * -46.16400000  *
   757       N         59.19100000  *  147.81900000  * -47.04800000  *
   758       H         60.03800000  *  147.50900000  * -47.52500000  *
   759       C         58.10100000  *  146.88000000  * -46.84100000  *
   760       H         57.21800000  *  147.32500000  * -47.29300000  *
   761       C         58.41200000  *  145.57700000  * -47.59200000  *
   762       H         58.61300000  *  145.80400000  * -48.64400000  *
   763       H         59.28800000  *  145.12100000  * -47.15800000  *
   764       C         57.28700000  *  144.52700000  * -47.51900000  *
   765       H         57.05600000  *  144.28000000  * -46.48700000  *
   766       C         56.00700000  *  145.04400000  * -48.19600000  *
   767       H         56.23500000  *  145.37800000  * -49.20200000  *
   768       H         55.26800000  *  144.24500000  * -48.23100000  *
   769       H         55.59500000  *  145.87000000  * -47.62900000  *
   770       C         57.76800000  *  143.24900000  * -48.17500000  *
   771       H         58.61500000  *  142.85400000  * -47.62000000  *
   772       H         56.97300000  *  142.50400000  * -48.17100000  *
   773       H         58.06400000  *  143.44500000  * -49.20700000  *
   774       C         57.76400000  *  146.61300000  * -45.36900000  *
   775       O         56.60900000  *  146.37600000  * -45.03000000  *
   776       N         58.75700000  *  146.67700000  * -44.48800000  *
   777       H         59.64000000  *  147.08600000  * -44.79000000  *
   778       C         58.49100000  *  146.46700000  * -43.07300000  *
   779       H         57.97900000  *  145.55100000  * -42.87200000  *
   780       C         59.78200000  *  146.47800000  * -42.25400000  *
   781       H         60.44800000  *  145.70000000  * -42.62000000  *
   782       H         60.28600000  *  147.44000000  * -42.35600000  *
   783       C         59.49200000  *  146.22900000  * -40.76500000  *
   784       H         58.94200000  *  147.08300000  * -40.37400000  *
   785       H         58.87100000  *  145.33200000  * -40.67600000  *
   786       C         60.74500000  *  146.03800000  * -39.93500000  *
   787       H         61.36100000  *  145.25900000  * -40.37900000  *
   788       H         61.30800000  *  146.97100000  * -39.90700000  *
   789       C         60.37600000  *  145.60700000  * -38.51700000  *
   790       H         59.98500000  *  144.58900000  * -38.53700000  *
   791       H         61.27900000  *  145.61300000  * -37.90300000  *
   792       N         59.34600000  *  146.53100000  * -37.94700000  *
   793       H         58.44600000  *  146.48100000  * -38.44300000  *
   794       H         59.09000000  *  146.27800000  * -37.00400000  *
   795       H         59.61300000  *  147.50600000  * -37.97800000  *
   796       C         57.55800000  *  147.53800000  * -42.51200000  *
   797       O         56.61300000  *  147.23400000  * -41.78300000  *
   798       N         57.83500000  *  148.81600000  * -42.79700000  *
   799       H         58.66300000  *  149.01500000  * -43.36300000  *
   800       C         56.99300000  *  149.92100000  * -42.31700000  *
   801       H         56.87500000  *  149.81800000  * -41.23600000  *
   802       C         57.65700000  *  151.27900000  * -42.59200000  *
   803       H         58.65800000  *  151.27600000  * -42.15800000  *
   804       H         57.74200000  *  151.43600000  * -43.66800000  *
   805       C         56.83800000  *  152.41800000  * -41.95900000  *
   806       H         55.87100000  *  152.48700000  * -42.45800000  *
   807       H         56.66700000  *  152.19000000  * -40.90500000  *
   808       C         57.54100000  *  153.77800000  * -42.05600000  *
   809       H         58.47600000  *  153.73700000  * -41.49400000  *
   810       H         57.75400000  *  154.00300000  * -43.10200000  *
   811       C         56.62800000  *  154.86100000  * -41.46400000  *
   812       H         55.69800000  *  154.88600000  * -42.04100000  *
   813       H         56.37400000  *  154.57900000  * -40.43700000  *
   814       N         57.26900000  *  156.20000000  * -41.47400000  *
   815       H         57.48700000  *  156.49700000  * -42.41400000  *
   816       H         56.65700000  *  156.89600000  * -41.07100000  *
   817       H         58.12300000  *  156.20200000  * -40.93700000  *
   818       C         55.59500000  *  149.82000000  * -42.91900000  *
   819       O         54.61100000  *  150.04600000  * -42.22100000  *
   820       N         55.49500000  *  149.42600000  * -44.18900000  *
   821       H         56.35000000  *  149.26300000  * -44.71300000  *
   822       C         54.20500000  *  149.26000000  * -44.85200000  *
   823       H         53.62600000  *  150.17500000  * -44.72500000  *
   824       C         54.41000000  *  148.98800000  * -46.34000000  *
   825       H         54.98900000  *  149.80200000  * -46.77700000  *
   826       H         55.00200000  *  148.07700000  * -46.45200000  *
   827       C         53.12600000  *  148.85300000  * -47.10800000  *
   828       C         52.23100000  *  149.92200000  * -47.18600000  *
   829       H         52.46300000  *  150.85600000  * -46.69900000  *
   830       C         51.01500000  *  149.79500000  * -47.88400000  *
   831       H         50.32500000  *  150.62800000  * -47.91800000  *
   832       C         50.69700000  *  148.60300000  * -48.50200000  *
   833       H         49.75200000  *  148.50200000  * -49.02000000  *
   834       C         51.58700000  *  147.52100000  * -48.43200000  *
   835       H         51.33500000  *  146.58300000  * -48.91200000  *
   836       C         52.79500000  *  147.65400000  * -47.73300000  *
   837       H         53.46700000  *  146.81000000  * -47.67200000  *
   838       C         53.37400000  *  148.12200000  * -44.22700000  *
   839       O         52.16900000  *  148.28300000  * -44.00900000  *
   840       N         54.01600000  *  146.98100000  * -43.96600000  *
   841       H         55.00900000  *  146.90600000  * -44.17900000  *
   842       C         53.33800000  *  145.83600000  * -43.34100000  *
   843       H         52.47600000  *  145.52800000  * -43.93400000  *
   844       C         54.29200000  *  144.65000000  * -43.17000000  *
   845       H         55.15800000  *  145.02700000  * -42.63600000  *
   846       H         53.80700000  *  143.89200000  * -42.54700000  *
   847       C         54.73100000  *  144.00400000  * -44.46100000  *
   848       H         53.84700000  *  143.61400000  * -44.95900000  *
   849       H         55.19200000  *  144.69400000  * -45.15000000  *
   850       S         55.79700000  *  142.58100000  * -44.15400000  *
   851       C         57.05400000  *  143.29200000  * -43.18800000  *
   852       H         56.67800000  *  143.65800000  * -42.23500000  *
   853       H         57.80700000  *  142.53400000  * -42.98200000  *
   854       H         57.44300000  *  144.07900000  * -43.80900000  *
   855       C         52.84400000  *  146.26000000  * -41.95900000  *
   856       O         51.68200000  *  146.03200000  * -41.61400000  *
   857       N         53.72600000  *  146.88400000  * -41.17900000  *
   858       H         54.70100000  *  146.95700000  * -41.45300000  *
   859       C         53.34300000  *  147.35100000  * -39.84600000  *
   860       H         53.03400000  *  146.49700000  * -39.23800000  *
   861       C         54.50500000  *  148.07700000  * -39.15700000  *
   862       H         54.94100000  *  148.81500000  * -39.83000000  *
   863       H         54.12400000  *  148.60600000  * -38.28400000  *
   864       C         55.58400000  *  147.11500000  * -38.68500000  *
   865       O         55.26200000  *  145.90900000  * -38.57600000  *
   866       O         56.73300000  *  147.55200000  * -38.41700000  *
   867       C         52.15000000  *  148.27900000  * -39.96300000  *
   868       O         51.20300000  *  148.18000000  * -39.18700000  *
   869       N         52.18300000  *  149.16200000  * -40.95500000  *
   870       H         53.01600000  *  149.23700000  * -41.51800000  *
   871       C         51.08600000  *  150.10000000  * -41.17300000  *
   872       H         50.93100000  *  150.67400000  * -40.25800000  *
   873       C         51.42800000  *  151.06800000  * -42.31500000  *
   874       H         51.45500000  *  150.53900000  * -43.26600000  *
   875       H         50.66000000  *  151.83800000  * -42.36800000  *
   876       H         52.39300000  *  151.53600000  * -42.12800000  *
   877       C         49.78900000  *  149.37000000  * -41.49900000  *
   878       O         48.71100000  *  149.83600000  * -41.15600000  *
   879       N         49.90500000  *  148.22900000  * -42.16400000  *
   880       H         50.83800000  *  147.88500000  * -42.38200000  *
   881       C         48.74000000  *  147.45400000  * -42.57500000  *
   882       H         47.85700000  *  148.08600000  * -42.62800000  *
   883       H         48.90600000  *  147.02300000  * -43.58600000  *
   884       H         48.52600000  *  146.61900000  * -41.88800000  *
   885       H         72.54500000  *  137.05800000  * -55.15200000  *
   886       C         72.38600000  *  137.90500000  * -54.47400000  *
   887       O         73.28300000  *  138.71900000  * -54.28600000  *
   888       N         71.20100000  *  138.01500000  * -53.89800000  *
   889       H         70.47300000  *  137.31400000  * -54.05700000  *
   890       C         70.96800000  *  139.10000000  * -52.94900000  *
   891       H         71.50000000  *  140.00600000  * -53.22900000  *
   892       C         69.47700000  *  139.40500000  * -52.82500000  *
   893       H         69.09300000  *  139.71900000  * -53.79200000  *
   894       H         68.93000000  *  138.50600000  * -52.53300000  *
   895       C         69.17800000  *  140.45400000  * -51.81200000  *
   896       N         69.23000000  *  140.42300000  * -50.45900000  *
   897       C         68.94700000  *  141.69100000  * -50.01400000  *
   898       H         68.96900000  *  142.01200000  * -48.98400000  *
   899       N         68.72400000  *  142.47200000  * -51.05500000  *
   900       H         68.47200000  *  143.44500000  * -51.00700000  *
   901       C         68.85400000  *  141.75000000  * -52.15500000  *
   902       H         68.77100000  *  142.12600000  * -53.16500000  *
   903       C         71.52100000  *  138.65700000  * -51.58300000  *
   904       O         72.28000000  *  139.38000000  * -50.94700000  *
   905       N         71.11400000  *  137.47100000  * -51.14500000  *
   906       H         70.37100000  *  137.01600000  * -51.66500000  *
   907       C         71.55500000  *  136.88000000  * -49.87700000  *
   908       H         71.18200000  *  135.84900000  * -49.87900000  *
   909       C         73.07600000  *  136.85300000  * -49.83700000  *
   910       H         73.53100000  *  137.83300000  * -49.86900000  *
   911       H         73.36600000  *  136.47900000  * -48.85100000  *
   912       C         73.64700000  *  135.85900000  * -50.81700000  *
   913       H         73.29800000  *  134.87100000  * -50.67200000  *
   914       H         73.21600000  *  136.10500000  * -51.78700000  *
   915       C         75.11700000  *  136.08400000  * -50.99900000  *
   916       H         75.61200000  *  135.95400000  * -50.03300000  *
   917       H         75.49500000  *  135.33200000  * -51.69500000  *
   918       N         75.35800000  *  137.42700000  * -51.50600000  *
   919       H         74.62100000  *  138.12700000  * -51.38200000  *
   920       C         76.54800000  *  137.85900000  * -51.89000000  *
   921       N         77.59300000  *  137.04400000  * -51.81500000  *
   922       H         77.44700000  *  136.21200000  * -51.26800000  *
   923       H         78.49900000  *  137.44300000  * -51.92100000  *
   924       N         76.69000000  *  139.09300000  * -52.35600000  *
   925       H         75.86000000  *  139.69200000  * -52.33800000  *
   926       H         77.56200000  *  139.47800000  * -52.67100000  *
   927       C         71.03700000  *  137.42400000  * -48.54200000  *
   928       O         71.18700000  *  136.76800000  * -47.50900000  *
   929       N         70.43700000  *  138.60400000  * -48.51600000  *
   930       H         70.32800000  *  139.16900000  * -49.34700000  *
   931       C         69.93700000  *  139.07600000  * -47.23100000  *
   932       H         69.76500000  *  138.24900000  * -46.54100000  *
   933       C         70.93500000  *  140.04200000  * -46.56200000  *
   934       H         71.90900000  *  139.56600000  * -46.50900000  *
   935       H         71.04400000  *  140.94300000  * -47.17900000  *
   936       C         70.51300000  *  140.42800000  * -45.14700000  *
   937       O         70.17200000  *  139.51500000  * -44.35500000  *
   938       O         70.51000000  *  141.64400000  * -44.82500000  *
   939       C         68.58700000  *  139.73400000  * -47.37800000  *
   940       O         68.35000000  *  140.81000000  * -46.83500000  *
   941       N         67.68700000  *  139.08300000  * -48.11000000  *
   942       H         67.94300000  *  138.20800000  * -48.54500000  *
   943       C         66.35900000  *  139.64900000  * -48.29900000  *
   944       H         66.47700000  *  140.66700000  * -48.65900000  *
   945       C         65.54600000  *  138.81300000  * -49.28800000  *
   946       H         65.58300000  *  137.78400000  * -48.94500000  *
   947       H         64.50600000  *  139.14000000  * -49.25500000  *
   948       C         66.02700000  *  138.85500000  * -50.73600000  *
   949       H         67.06400000  *  138.52800000  * -50.78200000  *
   950       C         65.17300000  *  137.91700000  * -51.58300000  *
   951       H         64.15900000  *  138.30500000  * -51.68800000  *
   952       H         65.63400000  *  137.80700000  * -52.55000000  *
   953       H         65.13400000  *  136.93500000  * -51.11000000  *
   954       C         65.92100000  *  140.27700000  * -51.26400000  *
   955       H         66.42000000  *  140.99600000  * -50.63300000  *
   956       H         66.44200000  *  140.27500000  * -52.20900000  *
   957       H         64.88200000  *  140.56100000  * -51.39700000  *
   958       C         65.59400000  *  139.73400000  * -46.98200000  *
   959       O         65.58600000  *  138.79200000  * -46.16600000  *
   960       N         64.95500000  *  140.85500000  * -46.74600000  *
   961       H         64.96400000  *  141.58600000  * -47.44400000  *
   962       C         64.16300000  *  141.05900000  * -45.54900000  *
   963       H         63.55000000  *  140.16900000  * -45.41400000  *
   964       C         65.03700000  *  141.21900000  * -44.28600000  *
   965       H         64.39900000  *  141.28200000  * -43.40400000  *
   966       H         65.63200000  *  140.31400000  * -44.16800000  *
   967       C         65.97600000  *  142.43100000  * -44.28600000  *
   968       H         66.38900000  *  142.58200000  * -45.28100000  *
   969       H         65.42400000  *  143.32200000  * -43.98700000  *
   970       C         67.12900000  *  142.16300000  * -43.31200000  *
   971       H         66.72900000  *  141.88700000  * -42.33400000  *
   972       H         67.70800000  *  141.32200000  * -43.70300000  *
   973       C         68.03900000  *  143.38400000  * -43.15700000  *
   974       H         68.14700000  *  143.87600000  * -44.12900000  *
   975       H         67.55800000  *  144.09300000  * -42.47300000  *
   976       N         69.37100000  *  142.97100000  * -42.64400000  *
   977       H         69.86500000  *  142.40900000  * -43.35100000  *
   978       H         69.93600000  *  143.77700000  * -42.40600000  *
   979       H         69.27500000  *  142.41000000  * -41.80800000  *
   980       C         63.26400000  *  142.22800000  * -45.83900000  *
   981       O         63.62500000  *  143.07200000  * -46.66000000  *
   982       N         62.11200000  *  142.30300000  * -45.18600000  *
   983       C         61.62600000  *  141.34600000  * -44.17100000  *
   984       H         62.10000000  *  141.53200000  * -43.20900000  *
   985       H         61.74500000  *  140.31100000  * -44.47600000  *
   986       C         60.16400000  *  141.66900000  * -44.09500000  *
   987       H         59.73700000  *  141.34900000  * -43.14300000  *
   988       H         59.63700000  *  141.20600000  * -44.93200000  *
   989       C         60.16000000  *  143.18900000  * -44.24800000  *
   990       H         60.51600000  *  143.64900000  * -43.32100000  *
   991       H         59.20200000  *  143.56500000  * -44.57400000  *
   992       C         61.14500000  *  143.38000000  * -45.40300000  *
   993       H         60.63400000  *  143.20500000  * -46.34500000  *
   994       C         61.77100000  *  144.77100000  * -45.44800000  *
   995       O         61.39200000  *  145.58400000  * -46.27300000  *
   996       N         62.73100000  *  145.08700000  * -44.56000000  *
   997       H         62.97200000  *  144.39700000  * -43.86400000  *
   998       C         63.45200000  *  146.38200000  * -44.53400000  *
   999       H         62.72400000  *  147.19000000  * -44.43900000  *
  1000       C         64.40800000  *  146.44300000  * -43.32800000  *
  1001       H         65.09700000  *  145.60000000  * -43.38000000  *
  1002       H         64.99800000  *  147.35800000  * -43.40300000  *
  1003       C         63.71500000  *  146.45400000  * -41.95900000  *
  1004       H         63.02400000  *  147.29700000  * -41.92200000  *
  1005       H         63.14900000  *  145.53300000  * -41.82600000  *
  1006       C         64.72300000  *  146.56500000  * -40.81300000  *
  1007       O         65.75100000  *  145.90100000  * -40.78600000  *
  1008       N         64.47500000  *  147.39300000  * -39.82200000  *
  1009       H         65.15000000  *  147.45600000  * -39.07400000  *
  1010       H         63.65700000  *  147.98200000  * -39.82800000  *
  1011       C         64.29200000  *  146.67200000  * -45.79600000  *
  1012       O         64.51800000  *  147.82800000  * -46.14600000  *
  1013       N         64.76000000  *  145.62400000  * -46.47800000  *
  1014       H         64.45700000  *  144.70600000  * -46.18600000  *
  1015       C         65.53600000  *  145.68700000  * -47.71800000  *
  1016       H         66.09700000  *  146.62200000  * -47.75500000  *
  1017       C         66.55200000  *  144.51500000  * -47.74500000  *
  1018       H         66.05600000  *  143.58900000  * -47.46500000  *
  1019       H         66.92100000  *  144.38200000  * -48.76000000  *
  1020       C         67.78400000  *  144.71700000  * -46.87100000  *
  1021       O         68.08800000  *  145.80600000  * -46.41200000  *
  1022       N         68.54300000  *  143.67600000  * -46.60400000  *
  1023       H         69.41800000  *  143.83600000  * -46.13200000  *
  1024       H         68.29800000  *  142.72500000  * -46.86400000  *
  1025       C         64.63200000  *  145.69900000  * -48.96800000  *
  1026       O         65.15500000  *  145.60900000  * -50.07700000  *
  1027       N         63.30000000  *  145.80300000  * -48.83400000  *
  1028       H         62.89500000  *  145.87300000  * -47.90900000  *
  1029       C         62.40600000  *  145.84500000  * -49.97900000  *
  1030       H         62.94700000  *  145.74800000  * -50.91900000  *
  1031       C         61.36900000  *  144.72100000  * -49.88900000  *
  1032       H         60.76900000  *  144.86100000  * -48.99200000  *
  1033       H         60.74400000  *  144.79800000  * -50.77200000  *
  1034       C         62.03600000  *  143.32400000  * -49.85900000  *
  1035       H         62.67100000  *  143.24000000  * -48.98800000  *
  1036       C         61.00200000  *  142.26000000  * -49.77100000  *
  1037       H         60.24600000  *  142.42800000  * -50.53400000  *
  1038       H         61.44700000  *  141.27100000  * -49.89000000  *
  1039       H         60.52000000  *  142.31900000  * -48.79800000  *
  1040       C         62.89500000  *  143.12600000  * -51.08400000  *
  1041       H         63.82900000  *  143.66800000  * -50.95600000  *
  1042       H         63.12900000  *  142.06900000  * -51.20900000  *
  1043       H         62.39300000  *  143.49200000  * -51.96600000  *
  1044       C         61.76300000  *  147.21800000  * -49.95200000  *
  1045       O         61.15000000  *  147.60200000  * -48.96600000  *
  1046       N         61.90000000  *  147.98900000  * -51.02400000  *
  1047       H         62.39300000  *  147.61900000  * -51.83200000  *
  1048       C         61.43900000  *  149.37700000  * -51.06000000  *
  1049       H         61.05700000  *  149.67900000  * -50.08700000  *
  1050       C         62.59000000  *  150.30700000  * -51.41900000  *
  1051       H         62.91300000  *  150.08700000  * -52.43700000  *
  1052       H         62.20600000  *  151.32500000  * -51.38300000  *
  1053       C         63.80100000  *  150.20200000  * -50.49100000  *
  1054       H         64.25000000  *  149.21500000  * -50.57900000  *
  1055       C         64.79500000  *  151.24900000  * -50.95400000  *
  1056       H         64.42500000  *  152.23500000  * -50.68700000  *
  1057       H         65.75500000  *  151.06000000  * -50.48500000  *
  1058       H         64.92100000  *  151.21700000  * -52.03100000  *
  1059       C         63.47100000  *  150.46900000  * -49.02400000  *
  1060       H         62.86100000  *  149.65500000  * -48.63900000  *
  1061       H         64.38600000  *  150.50700000  * -48.43600000  *
  1062       H         62.93000000  *  151.41000000  * -48.92000000  *
  1063       C         60.31300000  *  149.55000000  * -52.05800000  *
  1064       O         60.40400000  *  149.07900000  * -53.17800000  *
  1065       N         59.26800000  *  150.25600000  * -51.67700000  *
  1066       H         59.36500000  *  150.76300000  * -50.80000000  *
  1067       C         58.08300000  *  150.44700000  * -52.50800000  *
  1068       H         58.17300000  *  149.92400000  * -53.45700000  *
  1069       C         56.81900000  *  149.90600000  * -51.78600000  *
  1070       H         55.94300000  *  150.08700000  * -52.41500000  *
  1071       C         56.95000000  *  148.40400000  * -51.54300000  *
  1072       H         57.75300000  *  148.18300000  * -50.83300000  *
  1073       H         56.01300000  *  148.00400000  * -51.15200000  *
  1074       H         57.15800000  *  147.91500000  * -52.48900000  *
  1075       C         56.64700000  *  150.60600000  * -50.43300000  *
  1076       H         57.48200000  *  150.38000000  * -49.77500000  *
  1077       H         56.60500000  *  151.68300000  * -50.57600000  *
  1078       C         55.37000000  *  150.22200000  * -49.68600000  *
  1079       H         55.48900000  *  149.24800000  * -49.22200000  *
  1080       H         55.17000000  *  150.96500000  * -48.91000000  *
  1081       H         54.52900000  *  150.16800000  * -50.38500000  *
  1082       C         57.87200000  *  151.93000000  * -52.81700000  *
  1083       O         58.38200000  *  152.79400000  * -52.10000000  *
  1084       N         57.14900000  *  152.22000000  * -53.89700000  *
  1085       H         56.70500000  *  151.48200000  * -54.43300000  *
  1086       C         56.84100000  *  153.60200000  * -54.22700000  *
  1087       H         57.16800000  *  154.27800000  * -53.43100000  *
  1088       C         57.50400000  *  154.05300000  * -55.54100000  *
  1089       H         57.21800000  *  155.07000000  * -55.80500000  *
  1090       H         58.58200000  *  154.04400000  * -55.38800000  *
  1091       C         57.19300000  *  153.14600000  * -56.70100000  *
  1092       O         56.13500000  *  152.53500000  * -56.76400000  *
  1093       N         58.11500000  *  153.07200000  * -57.64100000  *
  1094       H         57.83300000  *  152.61700000  * -58.48600000  *
  1095       H         58.88600000  *  153.71500000  * -57.62100000  *
  1096       C         55.33100000  *  153.75800000  * -54.32100000  *
  1097       O         54.57600000  *  152.79900000  * -54.11400000  *
  1098       N         54.88500000  *  154.97100000  * -54.62100000  *
  1099       H         55.52100000  *  155.73600000  * -54.79200000  *
  1100       C         53.46400000  *  155.24700000  * -54.72300000  *
  1101       H         52.92700000  *  154.82600000  * -53.87200000  *
  1102       C         53.20900000  *  156.78000000  * -54.75500000  *
  1103       H         52.16900000  *  156.98000000  * -55.02600000  *
  1104       C         53.47800000  *  157.39700000  * -53.41000000  *
  1105       H         54.52100000  *  157.25500000  * -53.13000000  *
[...]
 1005  H   0.82985
 1006  C   1.06517   0.79749   0.73347   0.79786
 1007  O   1.87739   1.40425   1.58090   1.83520
 1008  N   1.52698   1.34416   1.42737   1.30152
 1009  H   0.65762
 1010  H   0.66187
 1011  C   1.08360   0.75701   0.78090   0.81426
 1012  O   1.88464   1.66010   1.31257   1.73607
 1013  N   1.55166   1.50736   1.20278   1.30100
 1014  H   0.66549
 1015  C   1.07230   0.94695   1.09603   0.82027
 1016  H   0.80370
 1017  C   1.07078   1.04844   1.08962   1.16563
 1018  H   0.83153
 1019  H   0.79630
 1020  C   1.05849   0.80569   0.76647   0.75475
 1021  O   1.87621   1.77378   1.39538   1.62273
 1022  N   1.53126   1.30955   1.19449   1.58801
 1023  H   0.66539
 1024  H   0.65475
 1025  C   1.08732   0.78523   0.72002   0.85317
 1026  O   1.87897   1.76651   1.61020   1.38023
 1027  N   1.54099   1.12632   1.66468   1.18333
 1028  H   0.65384
 1029  C   1.06982   0.96904   0.97951   0.97476
 1030  H   0.81094
 1031  C   1.06731   1.06458   0.99783   1.17274
 1032  H   0.83726
 1033  H   0.84822
 1034  C   1.04102   1.01190   0.94620   1.06229
 1035  H   0.85561
 1036  C   1.04922   1.12590   1.11849   1.17073
 1037  H   0.84498
 1038  H   0.84897
 1039  H   0.86569
 1040  C   1.05156   1.14162   1.17177   1.09908
 1041  H   0.84446
 1042  H   0.85767
 1043  H   0.84991
 1044  C   1.07662   0.74958   0.84267   0.75575
 1045  O   1.87193   1.53838   1.79735   1.44506
 1046  N   1.54593   1.55256   1.17235   1.25027
 1047  H   0.64523
 1048  C   1.06458   0.98759   0.82777   1.09970
 1049  H   0.81384
 1050  C   1.06422   1.02610   1.10365   1.12654
 1051  H   0.84623
 1052  H   0.84051
 1053  C   1.04785   0.96977   1.07010   0.96772
 1054  H   0.86552
 1055  C   1.05399   1.12888   1.12761   1.16380
 1056  H   0.84622
 1057  H   0.84901
 1058  H   0.85907
 1059  C   1.05486   1.17570   1.17584   1.04690
 1060  H   0.84097
 1061  H   0.85219
 1062  H   0.84761
 1063  C   1.07437   0.79914   0.74428   0.81732
 1064  O   1.86782   1.83073   1.62459   1.34522
 1065  N   1.54038   1.19442   1.46543   1.29645
 1066  H   0.64490
 1067  C   1.07611   0.88911   1.00815   1.04180
 1068  H   0.80989
 1069  C   1.06433   1.01552   0.99286   1.01973
 1070  H   0.85030
 1071  C   1.05464   1.18111   1.03430   1.17657
 1072  H   0.84331
 1073  H   0.84522
 1074  H   0.85319
 1075  C   1.05402   1.06963   1.12053   1.03136
 1076  H   0.84531
 1077  H   0.86051
 1078  C   1.05248   1.08969   1.15709   1.13169
 1079  H   0.84839
 1080  H   0.87848
 1081  H   0.84689
 1082  C   1.08578   0.74353   0.88666   0.74340
 1083  O   1.88688   1.56798   1.57571   1.55667
 1084  N   1.54277   1.50691   1.14434   1.33723
 1085  H   0.64420
 1086  C   1.06260   0.97128   0.88375   1.03880
 1087  H   0.80091
 1088  C   1.07228   1.18061   1.12619   1.02292
 1089  H   0.81097
 1090  H   0.80549
 1091  C   1.06113   0.76080   0.76994   0.82326
 1092  O   1.88002   1.35623   1.56994   1.83622
 1093  N   1.53433   1.29824   1.49542   1.27249
 1094  H   0.67214
 1095  H   0.66491
 1096  C   1.08288   0.88439   0.75838   0.71148
 1097  O   1.88757   1.65502   1.46947   1.59100
 1098  N   1.54005   1.14466   1.19789   1.67139
 1099  H   0.66284
 1100  C   1.08543   0.83782   1.05790   1.08149
 1101  H   0.80397
 1102  C   1.08419   0.99109   0.86705   0.88981
 1103  H   0.84711
 1104  C   1.05387   1.18481   1.17987   1.05486
 1105  H   0.84070
 1106  H   0.82468
 1107  H   0.82920
 1108  O   1.84895   1.59184   1.82280   1.34474
 1109  H   0.64318
 1110  C   1.07357   0.78882   0.75507   0.82438
 1111  O   1.87779   1.28028   1.68940   1.84912
 1112  N   1.53341   1.19379   1.53462   1.21096
 1113  H   0.66675
 1114  C   1.05706   1.15369   1.13335   0.89330
 1115  H   0.83547
 1116  H   0.83794
 1117  H   0.83542
 1118  H   0.83972
 1119  C   1.10505   0.75508   0.73550   0.91354
 1120  O   1.88314   1.71071   1.59661   1.48263
 1121  N   1.54488   1.42788   1.34572   1.20825
 1122  H   0.65362
 1123  C   1.08079   0.93092   1.08469   0.93140
 1124  H   0.80911
 1125  C   1.07312   1.07903   0.95365   0.98254
 1126  H   0.84412
 1127  C   1.05810   1.18709   1.08407   1.12930
 1128  H   0.84354
 1129  H   0.84846
 1130  H   0.85213
 1131  C   1.05415   1.07575   1.13478   1.01856
 1132  H   0.85366
 1133  H   0.85424
 1134  C   1.04918   1.14385   1.15086   1.09057
 1135  H   0.85007
 1136  H   0.85967
 1137  H   0.84952
 1138  C   1.07225   0.84172   0.73653   0.77756
 1139  O   1.87771   1.89049   1.52116   1.39095
 1140  N   1.54495   1.10283   1.52647   1.33565
 1141  H   0.63205
 1142  C   1.06987   0.84616   1.05356   1.03797
 1143  H   0.81801
 1144  C   1.06007   1.09274   1.04612   1.09596
 1145  H   0.83668
 1146  H   0.84630
 1147  C   1.05106   1.08559   1.04445   1.07794
 1148  H   0.85004
 1149  H   0.84487
 1150  C   1.05938   1.08199   1.05473   1.09840
 1151  H   0.84093
 1152  H   0.83223
 1153  C   1.07886   1.02192   0.99740   1.07419
 1154  H   0.81155
 1155  H   0.83376
 1156  N   1.45926   1.23087   1.22917   1.25644
 1157  H   0.69474
 1158  H   0.70025
 1159  H   0.68644
 1160  C   1.07825   0.77983   0.75054   0.82537
 1161  O   1.88112   1.77253   1.69309   1.29062
 1162  N   1.54484   1.32888   1.42527   1.23094
 1163  H   0.64046
 1164  C   1.07026   0.91885   0.95778   1.02898
 1165  H   0.83199
 1166  C   1.06277   1.10004   1.01934   1.13299
 1167  H   0.83532
 1168  H   0.84477
 1169  C   1.05373   1.07066   0.96112   0.96342
 1170  H   0.85975
 1171  C   1.06223   1.16615   1.13941   1.09233
 1172  H   0.85189
 1173  H   0.84923
 1174  H   0.85270
 1175  C   1.05739   1.18269   1.13697   1.08877
 1176  H   0.85345
 1177  H   0.84837
 1178  H   0.85421
 1179  C   1.08471   0.79159   0.79864   0.75890
 1180  O   1.88083   1.63457   1.59923   1.53789
 1181  N   1.54378   1.36975   1.43674   1.15959
 1182  H   0.64692
 1183  C   1.06750   0.91372   0.92731   1.05122
 1184  H   0.82809
 1185  C   1.05968   1.16279   1.08684   1.15400
 1186  H   0.82187
 1187  H   0.83321
 1188  H   0.82839
 1189  C   1.08787   0.78893   0.78302   0.74682
 1190  O   1.87326   1.84640   1.36419   1.58865
 1191  N   1.54668   1.16854   1.33131   1.48805
 1192  H   0.67331
 1193  C   1.07541   0.87572   1.08221   0.93374
 1194  H   0.81143
 1195  C   1.07968   1.14134   1.18650   1.00421
 1196  H   0.81122
 1197  H   0.82878
 1198  C   1.07354   0.74323   0.71677   0.70716
 1199  O   1.88605   1.81440   1.48971   1.54376
 1200  O   1.87558   1.64819   1.53243   1.80810
 1201  C   1.09155   0.82094   0.79591   0.74788
 1202  O   1.88773   1.27515   1.81094   1.55692
 1203  N   1.56776   1.29382   1.16872   1.54702
 1204  H   0.67976
 1205  C   1.07925   1.01855   0.91955   0.95275
 1206  H   0.83980
 1207  C   1.05571   1.07675   1.20338   0.96304
 1208  H   0.81245
 1209  H   0.82081
 1210  C   1.07493   0.97433   0.97719   0.96963
 1211  C   1.09005   1.04129   1.04174   1.01475
 1212  H   0.83980
 1213  C   1.08859   0.98545   1.06178   1.01078
 1214  H   0.84252
 1215  C   1.08740   1.05979   0.99192   1.03272
 1216  H   0.84791
 1217  C   1.08949   1.03726   1.03608   0.98916
 1218  H   0.83151
 1219  C   1.08732   0.98593   1.06432   1.02335
 1220  H   0.83767
 1221  C   1.09038   0.80297   0.77296   0.76257
 1222  O   1.88537   1.44385   1.55903   1.71373
 1223  N   1.53969   1.41521   1.43862   1.13724
 1224  H   0.68625
 1225  C   1.06844   0.98827   1.06906   0.98104
 1226  H   0.81548
 1227  H   0.80523
 1228  C   1.07991   0.82844   0.77887   0.70350
 1229  O   1.87712   1.84031   1.32348   1.60868
 1230  N   1.55916   1.30205   1.23381   1.45059
 1231  H   0.67460
 1232  C   1.07783   0.89786   1.03355   0.96962
 1233  H   0.83202
 1234  C   1.06800   1.11454   0.94995   1.17351
 1235  H   0.84129
 1236  H   0.82908
 1237  C   1.05182   1.03072   0.96030   1.01201
 1238  H   0.86275
 1239  C   1.05594   1.16892   1.06787   1.16205
 1240  H   0.85899
 1241  H   0.84116
 1242  H   0.85755
 1243  C   1.05570   1.17209   1.18948   1.04543
 1244  H   0.84184
 1245  H   0.83855
 1246  H   0.85848
 1247  C   1.09515   0.85796   0.76656   0.72762
 1248  O   1.88130   1.32425   1.78582   1.59299
 1249  N   1.58214   1.28177   1.23278   1.52146
 1250  H   0.66099
 1251  C   1.06872   0.96493   0.99765   0.95375
 1252  H   0.83614
 1253  C   1.05859   1.13922   1.09716   1.17439
 1254  H   0.84384
 1255  H   0.80958
 1256  H   0.81104
 1257  C   1.07566   0.83411   0.75260   0.78167
 1258  O   1.88397   1.49890   1.59897   1.64922
 1259  N   1.54299   1.31154   1.51231   1.14403
 1260  H   0.67644
 1261  C   1.06251   0.92393   1.14576   1.10583
 1262  H   0.82618
 1263  H   0.82959
 1264  H   0.83893
 1265  H   0.84115
 1266  C   1.10477   0.72491   0.79429   0.87706
 1267  O   1.88387   1.53283   1.36155   1.88305
 1268  N   1.54284   1.48760   1.35128   1.14841
 1269  H   0.67734
 1270  C   1.07278   1.11695   0.96752   0.82298
 1271  H   0.80261
 1272  C   1.05753   1.09001   1.02765   1.15054
 1273  H   0.83921
 1274  H   0.82061
 1275  C   1.06445   0.97773   0.95024   0.96831
 1276  C   1.08295   1.02020   0.99448   1.05956
 1277  H   0.83871
 1278  C   1.08256   1.04649   1.02678   0.99704
 1279  H   0.84385
 1280  C   1.08137   1.00633   1.05590   1.02604
 1281  H   0.84899
 1282  C   1.08082   1.02420   1.00350   1.05464
 1283  H   0.85453
 1284  C   1.08274   1.06037   1.02733   0.99708
 1285  H   0.84062
 1286  C   1.08004   0.76685   0.78614   0.79914
 1287  O   1.88376   1.53945   1.68070   1.53402
 1288  N   1.53632   1.17517   1.34759   1.43112
 1289  H   0.67332
 1290  C   1.05781   1.14247   0.97568   0.99846
 1291  H   0.81509
 1292  H   0.78907
 1293  C   1.07416   0.78777   0.75751   0.80179
 1294  O   1.88111   1.54108   1.38347   1.84178
 1295  N   1.53622   1.41039   1.37779   1.17740
 1296  H   0.65062
 1297  C   1.07418   1.00267   1.19835   0.87805
 1298  H   0.81311
 1299  H   0.79396
 1300  C   1.08209   0.77435   0.74503   0.80740
 1301  O   1.88291   1.52148   1.53243   1.73134
 1302  N   1.56473   1.44488   1.16589   1.26733
 1303  C   1.07072   1.06928   0.87089   1.05649
 1304  H   0.83620
 1305  H   0.84110
 1306  C   1.05705   1.04769   1.13524   1.05888
 1307  H   0.84539
 1308  H   0.80848
 1309  C   1.06099   1.08137   0.98358   1.17244
 1310  H   0.83535
 1311  H   0.81909
 1312  C   1.07352   1.05293   1.00102   0.86833
 1313  H   0.81308
 1314  C   1.08820   0.76382   0.76838   0.82876
 1315  O   1.88395   1.42691   1.43527   1.88339
 1316  N   1.54311   1.40337   1.48375   1.11757
 1317  H   0.64355
 1318  C   1.08223   1.04971   1.11425   0.89102
 1319  H   0.80066
 1320  H   0.78728
 1321  C   1.08830   0.82551   0.73023   0.77834
 1322  O   1.88491   1.70328   1.72960   1.32948
 1323  N   1.55115   1.23249   1.41123   1.34472
 1324  H   0.68848
 1325  C   1.07570   0.85986   1.06398   0.97844
 1326  H   0.82206
 1327  C   1.05962   1.16901   1.07548   0.97634
 1328  H   0.83483
 1329  H   0.83877
 1330  C   1.05818   1.13850   1.07484   1.02400
 1331  H   0.82463
 1332  H   0.87156
 1333  C   1.06375   1.08740   1.09997   0.78144
 1334  H   0.85051
 1335  H   0.81936
 1336  N   1.53282   1.62698   1.28990   1.09342
 1337  H   0.64882
 1338  C   0.97601   0.83629   0.80289   0.79449
 1339  N   1.50146   1.56333   1.25850   1.24811
 1340  H   0.67469
 1341  H   0.62632
 1342  N   1.50407   1.55699   1.35355   1.14116
 1343  H   0.64456
 1344  H   0.63717
 1345  C   1.08258   0.75736   0.77372   0.84376
 1346  O   1.88761   1.48092   1.64712   1.56800
 1347  N   1.54314   1.54519   1.19781   1.24092
 1348  H   0.67340
 1349  C   1.08994   1.00003   1.00968   0.91830
 1350  H   0.79913
 1351  C   1.08568   0.92919   0.92526   0.87477
 1352  H   0.85153
 1353  C   1.05845   1.09838   1.12873   1.20423
 1354  H   0.82564
 1355  H   0.83338
 1356  H   0.83061
 1357  O   1.84253   1.58487   1.64210   1.57180
 1358  H   0.62415
 1359  C   1.07907   0.80872   0.78955   0.75865
 1360  O   1.88642   1.54254   1.79540   1.37659
 1361  N   1.55281   1.32703   1.29592   1.37706
 1362  H   0.65176
 1363  C   1.07399   0.98903   0.92715   0.99370
 1364  H   0.81726
 1365  C   1.05776   1.09573   1.06840   1.08619
 1366  H   0.84125
 1367  H   0.82955
 1368  C   1.06145   0.97119   0.97513   1.05726
 1369  C   1.08272   0.97385   1.07974   0.99755
 1370  H   0.84516
 1371  C   1.08371   1.08287   0.99475   1.00750
 1372  H   0.80320
 1373  C   1.06591   0.82520   0.89603   0.91629
 1374  O   1.84117   1.47084   1.54214   1.69689
 1375  H   0.63896
 1376  C   1.07404   0.99045   1.09209   1.06825
 1377  H   0.84664
 1378  C   1.08145   1.06423   0.99866   0.99733
 1379  H   0.85836
 1380  C   1.08188   0.77648   0.73406   0.82096
 1381  O   1.88475   1.39055   1.55600   1.82932
 1382  N   1.55035   1.20056   1.60164   1.14815
 1383  H   0.66074
 1384  C   1.08722   1.11710   1.03495   0.83738
 1385  H   0.82136
 1386  C   1.08254   0.83225   0.89063   1.00021
 1387  H   0.86788
 1388  C   1.05719   1.09876   1.14113   1.18964
 1389  H   0.83129
 1390  H   0.84538
 1391  H   0.84159
 1392  O   1.84705   1.32383   1.76608   1.66693
 1393  H   0.61657
 1394  C   1.08202   0.82810   0.76378   0.79199
 1395  O   1.88730   1.29169   1.70647   1.67742
 1396  N   1.54292   1.22802   1.27090   1.47586
 1397  H   0.64945
 1398  C   1.07063   0.98392   1.04052   1.07617
 1399  H   0.84418
 1400  H   0.80859
 1401  C   1.07032   0.85077   0.72017   0.75157
 1402  O   1.88495   1.70083   1.45757   1.55946
 1403  N   1.55354   1.14737   1.51367   1.33253
 1404  H   0.67998
 1405  C   1.07059   0.82920   0.98714   1.12855
 1406  H   0.81442
 1407  C   1.05337   1.16407   0.99026   1.05268
 1408  H   0.83920
 1409  H   0.83659
 1410  C   1.05974   1.20536   1.01158   1.13809
 1411  H   0.84290
 1412  H   0.82588
 1413  C   1.06674   0.72272   0.72038   0.72778
 1414  O   1.88753   1.47390   1.82381   1.63742
 1415  O   1.88504   1.51750   1.58590   1.81385
 1416  C   1.08684   0.77116   0.86263   0.75471
 1417  O   1.88734   1.64836   1.65289   1.40928
 1418  N   1.54586   1.31032   1.19194   1.47859
 1419  H   0.65327
 1420  C   1.07213   1.06275   0.88121   1.00754
 1421  H   0.84360
 1422  C   1.05449   1.01868   1.03230   0.97099
 1423  H   0.83631
 1424  C   1.05592   1.17746   1.04874   1.19328
 1425  H   0.84536
 1426  H   0.83581
 1427  H   0.83801
 1428  C   1.05455   1.18134   1.16761   1.06137
 1429  H   0.84069
 1430  H   0.83980
 1431  H   0.85195
 1432  C   1.07573   0.77106   0.73160   0.84221
 1433  O   1.88367   1.36377   1.63740   1.76953
 1434  N   1.53829   1.27319   1.47277   1.21109
 1435  H   0.66890
 1436  C   1.07708   1.00713   1.05466   0.86813
 1437  H   0.82260
 1438  C   1.06066   1.02658   1.01602   0.97684
 1439  H   0.84041
 1440  C   1.05420   1.18423   1.09831   1.12141
 1441  H   0.84085
 1442  H   0.84077
 1443  H   0.85075
 1444  C   1.05736   1.18971   1.16663   1.05245
 1445  H   0.84617
 1446  H   0.83547
 1447  H   0.83885
 1448  C   1.08157   0.80667   0.78644   0.75130
 1449  O   1.88318   1.81146   1.47314   1.46019
 1450  N   1.53602   1.23689   1.43136   1.31666
 1451  H   0.66468
 1452  C   1.07957   0.90437   0.96827   1.14835
 1453  H   0.80522
 1454  C   1.07971   0.93528   0.82461   0.98298
 1455  H   0.86679
 1456  C   1.05746   1.09509   1.13585   1.19624
 1457  H   0.82487
 1458  H   0.82206
 1459  H   0.84130
 1460  O   1.84758   1.47781   1.49385   1.78187
 1461  H   0.64865
 1462  C   1.07070   0.75362   0.82644   0.79810
 1463  O   1.88054   1.50728   1.88264   1.36449
 1464  N   1.53716   1.55013   1.12178   1.29443
 1465  H   0.65706
 1466  C   1.05410   1.16780   0.87316   1.13587
 1467  H   0.83018
 1468  H   0.83672
 1469  H   0.85122
 1470  H   0.82729
 1471  C   1.10849   0.72195   0.77565   0.90303
 1472  O   1.87918   1.50021   1.39719   1.89103
 1473  N   1.54808   1.50772   1.35867   1.13689
 1474  H   0.67062
 1475  C   1.07821   1.08322   1.04090   0.80199
 1476  H   0.80369
 1477  C   1.05901   1.13417   0.99949   1.10162
 1478  H   0.81856
 1479  H   0.82214
 1480  C   1.06593   0.97591   0.99303   1.00562
 1481  C   1.08233   0.99073   1.02462   1.00444
 1482  H   0.83761
 1483  C   1.07636   1.10514   1.04984   1.06626
 1484  H   0.82036
 1485  C   1.07257   0.88644   0.88190   0.87955
 1486  O   1.83868   1.35508   1.61299   1.73276
 1487  H   0.61907
 1488  C   1.07842   0.98861   1.10013   1.09721
 1489  H   0.82139
 1490  C   1.08816   1.07855   0.97874   0.96887
 1491  H   0.83510
 1492  C   1.08084   0.79994   0.76891   0.79201
 1493  O   1.88631   1.81381   1.69952   1.28029
 1494  N   1.53471   1.25586   1.50888   1.18461
 1495  H   0.67097
 1496  C   1.06143   0.92031   1.08960   1.16683
 1497  H   0.83430
 1498  H   0.82970
 1499  H   0.83845
 1500  H   0.82486
 1501  C   1.10804   0.78633   0.88375   0.71617
 1502  O   1.88011   1.43050   1.87065   1.50912
 1503  N   1.55068   1.37512   1.18534   1.44524
 1504  H   0.64439
 1505  C   1.07867   0.96573   0.86326   1.12908
 1506  H   0.81498
 1507  C   1.05975   0.97989   0.99666   1.07640
 1508  H   0.84636
 1509  C   1.05207   1.15824   1.06262   1.17611
 1510  H   0.84448
 1511  H   0.84453
 1512  H   0.84177
 1513  C   1.04784   0.99991   1.12973   1.08496
 1514  H   0.86680
 1515  H   0.85353
 1516  C   1.04905   1.11599   1.12954   1.14944
 1517  H   0.85870
 1518  H   0.85743
 1519  H   0.84108
 1520  C   1.07242   0.85961   0.73797   0.75024
 1521  O   1.87627   1.57604   1.55604   1.67378
 1522  N   1.54217   1.18497   1.41741   1.37464
 1523  H   0.66202
 1524  C   1.07135   0.87896   1.16328   1.10827
 1525  H   0.84315
 1526  H   0.83224
 1527  H   0.83421
 1528  H   0.82764
 1529  C   1.10754   0.84809   0.73326   0.82095
 1530  O   1.88533   1.81640   1.62638   1.36679
 1531  N   1.53779   1.25348   1.40297   1.30527
 1532  H   0.64790
 1533  C   1.05916   0.89164   1.04077   1.02448
 1534  H   0.81930
 1535  C   1.06067   1.03214   1.11515   1.11418
 1536  H   0.82485
 1537  H   0.84732
 1538  C   1.04451   0.99036   0.96279   1.06050
 1539  H   0.88001
 1540  C   1.05449   1.16243   1.06840   1.18058
 1541  H   0.83891
 1542  H   0.84795
 1543  H   0.85380
 1544  C   1.05253   1.12325   1.17303   1.10746
 1545  H   0.85711
 1546  H   0.84688
 1547  H   0.84160
 1548  C   1.07857   0.72939   0.86457   0.77463
 1549  O   1.88179   1.57652   1.45152   1.73553
 1550  N   1.54015   1.57227   1.21292   1.19385
 1551  H   0.66040
 1552  C   1.07173   1.02063   0.93490   0.96077
 1553  H   0.81143
 1554  C   1.05666   1.17067   1.07915   0.99257
 1555  H   0.82399
 1556  H   0.82733
 1557  C   1.05681   1.12998   1.08826   1.03632
 1558  H   0.85370
 1559  H   0.82342
 1560  C   1.06366   1.15820   0.94509   0.90223
 1561  H   0.81555
 1562  H   0.83637
 1563  N   1.52411   1.16125   1.42463   1.39828
 1564  H   0.63934
 1565  C   0.99154   0.79139   0.81257   0.81868
 1566  N   1.51735   1.11708   1.46801   1.48671
 1567  H   0.65544
 1568  H   0.63899
 1569  N   1.50862   1.25118   1.39991   1.41124
 1570  H   0.64164
 1571  H   0.64059
 1572  C   1.08199   0.87262   0.77252   0.74578
 1573  O   1.88777   1.60720   1.59811   1.52550
 1574  N   1.53978   1.17468   1.27159   1.51648
 1575  H   0.65738
 1576  C   1.07432   0.85696   1.08625   1.03811
 1577  H   0.82146
 1578  C   1.06140   1.16388   1.09825   0.98421
 1579  H   0.84238
 1580  H   0.83856
 1581  C   1.04757   1.08158   0.95975   0.94844
 1582  H   0.86930
 1583  C   1.05595   1.17128   1.16328   1.07772
 1584  H   0.85398
 1585  H   0.86048
 1586  H   0.84723
 1587  C   1.05676   1.15727   1.09309   1.15826
 1588  H   0.85027
 1589  H   0.86031
 1590  H   0.84719
 1591  C   1.08290   0.71475   0.76150   0.70265
 1592  O   1.88395   1.46779   1.86951   1.62314
 1593  O   1.88762   1.54725   1.59407   1.80318

 **********************
 *                    *
 * JOB ENDED NORMALLY *
 *                    *
 **********************



 TOTAL JOB TIME:          2946.47 SECONDS

 == MOPAC DONE ==
