 *******************************************************************************
 **                                                                           **
 **                              MOPAC v23.2.2                                **
 **                                                                           **
 *******************************************************************************
 **          Digital Object Identifier (DOI): 10.5281/zenodo.6511958          **
 **    Visit the DOI location for information on how to cite this program.    **
 *******************************************************************************

                              PM7 CALCULATION RESULTS

 *******************************************************************************
 *  CALCULATION DONE: (MAX THREADS = 24)             Thu Jan 22 23:08:56 2026  *
 *  PM7        - The PM7 Hamiltonian to be used
 *
 *
 *
 *                 CHARGE ON SYSTEM = +2
 *
 *
 *
 *  EPS=78.4   - USE ANDREAS KLAMT'S COSMO IMPLICIT SOLVATION MODEL
 *  XYZ        - CARTESIAN COORDINATE SYSTEM TO BE USED
 *  1SCF       - DO 1 SCF AND THEN STOP 
 *  T=         - A TIME OF 172800.0 SECONDS REQUESTED
 *  DUMP=N     - RESTART FILE WRITTEN EVERY 7200.0 SECONDS REQUESTED
 *******************************************************************************
PM7 1SCF XYZ CHARGE=2 EPS=78.4


   ATOM   CHEMICAL          X               Y               Z
  NUMBER   SYMBOL      (ANGSTROMS)     (ANGSTROMS)     (ANGSTROMS)

     1       H         71.69100000  *  165.23700000  * -45.36000000  *
     2       C         70.72700000  *  165.64400000  * -45.02500000  *
     3       O         70.67100000  *  166.69300000  * -44.40000000  *
     4       N         69.64800000  *  164.94600000  * -45.35400000  *
     5       H         69.74300000  *  164.08600000  * -45.86500000  *
     6       C         68.31800000  *  165.37700000  * -44.95100000  *
     7       H         68.30400000  *  166.44500000  * -44.75000000  *
     8       C         67.27900000  *  165.08100000  * -46.05800000  *
     9       H         67.27200000  *  164.02200000  * -46.29800000  *
    10       C         65.89200000  *  165.46600000  * -45.59200000  *
    11       H         65.46400000  *  166.22900000  * -46.24500000  *
    12       H         65.23700000  *  164.60600000  * -45.62700000  *
    13       H         65.87600000  *  165.89500000  * -44.58400000  *
    14       C         67.63700000  *  165.85600000  * -47.31700000  *
    15       H         68.59400000  *  165.52900000  * -47.70800000  *
    16       H         66.87900000  *  165.66900000  * -48.07700000  *
    17       H         67.68800000  *  166.92100000  * -47.10100000  *
    18       C         67.91500000  *  164.66400000  * -43.65700000  *
    19       O         67.55300000  *  165.30600000  * -42.67600000  *
    20       N         67.98400000  *  163.33800000  * -43.65800000  *
    21       H         68.28400000  *  162.85200000  * -44.48600000  *
    22       C         67.62300000  *  162.54400000  * -42.48700000  *
    23       H         67.90600000  *  163.07600000  * -41.58100000  *
    24       C         66.12800000  *  162.23500000  * -42.45900000  *
    25       H         65.92600000  *  161.47400000  * -43.20900000  *
    26       H         65.88500000  *  161.80700000  * -41.48800000  *
    27       C         65.21300000  *  163.39800000  * -42.74000000  *
    28       H         65.33100000  *  164.15700000  * -41.96400000  *
    29       H         65.45900000  *  163.81400000  * -43.69700000  *
    30       C         63.76600000  *  162.97200000  * -42.82400000  *
    31       O         63.44700000  *  162.11400000  * -43.67900000  *
    32       O         62.94800000  *  163.49400000  * -42.03400000  *
    33       C         68.34700000  *  161.22200000  * -42.57700000  *
    34       O         68.73000000  *  160.78800000  * -43.66100000  *
    35       N         68.52400000  *  160.57500000  * -41.43500000  *
    36       H         68.03000000  *  160.89100000  * -40.60600000  *
    37       C         69.17300000  *  159.28200000  * -41.42100000  *
    38       H         69.95100000  *  159.22100000  * -42.17800000  *
    39       C         69.75600000  *  159.01000000  * -40.03200000  *
    40       H         70.21900000  *  159.94300000  * -39.71800000  *
    41       H         68.96300000  *  158.79100000  * -39.31600000  *
    42       C         70.79800000  *  157.89600000  * -39.98300000  *
    43       H         70.31100000  *  156.94100000  * -40.17400000  *
    44       H         71.53800000  *  158.07300000  * -40.76900000  *
    45       C         71.50100000  *  157.83200000  * -38.61800000  *
    46       H         70.74900000  *  157.59000000  * -37.86000000  *
    47       H         72.23100000  *  157.01800000  * -38.63800000  *
    48       C         72.18600000  *  159.16200000  * -38.26900000  *
    49       H         72.83200000  *  159.42500000  * -39.10900000  *
    50       H         71.41200000  *  159.93100000  * -38.15600000  *
    51       N         73.00000000  *  159.10500000  * -37.02500000  *
    52       H         73.70000000  *  158.37000000  * -37.07400000  *
    53       H         73.43800000  *  159.98800000  * -36.79300000  *
    54       H         72.39100000  *  158.85400000  * -36.25100000  *
    55       C         68.06200000  *  158.28700000  * -41.74800000  *
    56       O         67.16300000  *  158.08100000  * -40.94600000  *
    57       N         68.06600000  *  157.74200000  * -42.96700000  *
    58       H         68.86500000  *  157.93400000  * -43.55000000  *
    59       C         67.13900000  *  156.68000000  * -43.40200000  *
    60       H         66.12500000  *  157.08300000  * -43.42100000  *
    61       C         67.50500000  *  156.19700000  * -44.82500000  *
    62       H         68.58400000  *  156.24800000  * -44.94100000  *
    63       C         67.09300000  *  154.74600000  * -45.11100000  *
    64       H         66.01500000  *  154.62300000  * -45.01000000  *
    65       H         67.41100000  *  154.47600000  * -46.11300000  *
    66       H         67.59500000  *  154.05400000  * -44.43800000  *
    67       C         66.87300000  *  157.16500000  * -45.84100000  *
    68       H         65.78800000  *  157.06300000  * -45.82400000  *
    69       H         67.10800000  *  158.17500000  * -45.52100000  *
    70       C         67.37200000  *  156.99100000  * -47.28100000  *
    71       H         67.04500000  *  156.04000000  * -47.69000000  *
    72       H         66.97400000  *  157.79100000  * -47.90200000  *
    73       H         68.45800000  *  157.03300000  * -47.30900000  *
    74       C         67.13200000  *  155.54000000  * -42.38400000  *
    75       O         66.06900000  *  155.07100000  * -41.97500000  *
    76       N         68.32600000  *  155.12400000  * -41.96200000  *
    77       H         69.16100000  *  155.54500000  * -42.35600000  *
    78       C         68.49400000  *  154.14400000  * -40.90700000  *
    79       H         68.45800000  *  154.64900000  * -39.94100000  *
    80       H         67.67900000  *  153.41900000  * -40.94500000  *
    81       C         69.81400000  *  153.39800000  * -41.00000000  *
    82       O         70.84400000  *  153.92300000  * -41.42700000  *
    83       N         69.76600000  *  152.16200000  * -40.52800000  *
    84       H         68.85900000  *  151.79400000  * -40.27700000  *
    85       C         70.91800000  *  151.45600000  * -39.99200000  *
    86       H         71.81600000  *  152.06600000  * -40.09600000  *
    87       C         70.66900000  *  151.22700000  * -38.49100000  *
    88       H         69.84800000  *  150.52200000  * -38.35700000  *
    89       H         71.57800000  *  150.80300000  * -38.08900000  *
    90       C         70.35200000  *  152.51900000  * -37.71200000  *
    91       H         71.15800000  *  153.23900000  * -37.87400000  *
    92       H         69.43500000  *  152.96800000  * -38.09900000  *
    93       C         70.16000000  *  152.27200000  * -36.20800000  *
    94       O         69.20000000  *  151.56600000  * -35.82200000  *
    95       O         70.91700000  *  152.85700000  * -35.39900000  *
    96       C         71.12000000  *  150.15800000  * -40.78400000  *
    97       O         70.39900000  *  149.17500000  * -40.59600000  *
    98       N         72.03000000  *  150.19800000  * -41.75900000  *
    99       H         72.65500000  *  150.99400000  * -41.81700000  *
   100       C         72.15300000  *  149.17000000  * -42.79400000  *
   101       H         71.15800000  *  148.82500000  * -43.07900000  *
   102       H         72.61200000  *  149.62300000  * -43.67100000  *
   103       C         72.98600000  *  147.94900000  * -42.39400000  *
   104       O         73.49700000  *  147.83400000  * -41.28100000  *
   105       N         73.18300000  *  147.05300000  * -43.36100000  *
   106       H         72.72100000  *  147.19600000  * -44.25000000  *
   107       C         74.04000000  *  145.85300000  * -43.26500000  *
   108       H         73.76000000  *  145.28300000  * -42.37900000  *
   109       C         73.82800000  *  144.95900000  * -44.50000000  *
   110       H         74.59900000  *  144.18800000  * -44.54100000  *
   111       C         72.46500000  *  144.27800000  * -44.47000000  *
   112       H         71.66500000  *  145.01700000  * -44.51500000  *
   113       H         72.38500000  *  143.60300000  * -45.32200000  *
   114       H         72.38000000  *  143.68900000  * -43.55700000  *
   115       O         73.90000000  *  145.75800000  * -45.65600000  *
   116       H         73.34800000  *  145.34900000  * -46.36000000  *
   117       C         75.53800000  *  146.15700000  * -43.14900000  *
   118       O         76.26300000  *  145.33600000  * -42.59400000  *
   119       N         75.98800000  *  147.32700000  * -43.62900000  *
   120       H         75.31800000  *  147.88500000  * -44.13100000  *
   121       C         77.40800000  *  147.71500000  * -43.72400000  *
   122       H         78.00800000  *  147.06000000  * -43.08900000  *
   123       C         77.88100000  *  147.53200000  * -45.17800000  *
   124       H         77.29300000  *  148.18700000  * -45.82200000  *
   125       H         78.92300000  *  147.83800000  * -45.25900000  *
   126       C         77.80200000  *  146.11900000  * -45.69900000  *
   127       C         78.69800000  *  145.15600000  * -45.20700000  *
   128       H         79.45100000  *  145.43300000  * -44.47900000  *
   129       C         78.60100000  *  143.82600000  * -45.64300000  *
   130       H         79.28500000  *  143.09100000  * -45.24900000  *
   131       C         77.60500000  *  143.46100000  * -46.57400000  *
   132       O         77.47100000  *  142.16800000  * -46.95000000  *
   133       H         77.88800000  *  141.59300000  * -46.28100000  *
   134       C         76.72600000  *  144.43500000  * -47.08800000  *
   135       H         75.95300000  *  144.15300000  * -47.78500000  *
   136       C         76.83400000  *  145.76700000  * -46.65700000  *
   137       H         76.14600000  *  146.51000000  * -47.03500000  *
   138       C         77.72900000  *  149.15700000  * -43.29000000  *
   139       O         78.87800000  *  149.57300000  * -43.41900000  *
   140       N         76.76400000  *  149.94300000  * -42.80400000  *
   141       H         75.84500000  *  149.56300000  * -42.63500000  *
   142       C         76.97800000  *  151.36000000  * -42.48000000  *
   143       H         77.52400000  *  151.43900000  * -41.54300000  *
   144       H         77.59200000  *  151.80800000  * -43.25200000  *
   145       C         75.68100000  *  152.16000000  * -42.35000000  *
   146       O         74.61200000  *  151.57000000  * -42.16200000  *
   147       N         75.75500000  *  153.49500000  * -42.44900000  *
   148       H         76.58800000  *  153.89400000  * -42.85900000  *
   149       C         74.59200000  *  154.32600000  * -42.21200000  *
   150       H         73.82600000  *  153.78000000  * -41.65800000  *
   151       C         74.95900000  *  155.54800000  * -41.37000000  *
   152       H         75.70700000  *  156.13900000  * -41.89300000  *
   153       C         73.73100000  *  156.40900000  * -41.13300000  *
   154       H         72.94300000  *  155.80300000  * -40.68200000  *
   155       H         73.98600000  *  157.21200000  * -40.45000000  *
   156       H         73.36800000  *  156.84900000  * -42.06500000  *
   157       C         75.54500000  *  155.09600000  * -40.05300000  *
   158       H         76.46000000  *  154.52800000  * -40.19800000  *
   159       H         75.77700000  *  155.95300000  * -39.42300000  *
   160       H         74.80500000  *  154.48400000  * -39.53200000  *
   161       C         74.01900000  *  154.79200000  * -43.53700000  *
   162       O         74.76100000  *  155.18400000  * -44.43700000  *
   163       N         72.70100000  *  154.66000000  * -43.67200000  *
   164       H         72.16200000  *  154.34500000  * -42.86900000  *
   165       C         71.95500000  *  155.12600000  * -44.83800000  *
   166       H         72.64200000  *  155.21700000  * -45.67500000  *
   167       C         70.84000000  *  154.15000000  * -45.25600000  *
   168       H         69.98400000  *  154.26900000  * -44.59200000  *
   169       C         70.40900000  *  154.47400000  * -46.69200000  *
   170       H         71.24400000  *  154.34200000  * -47.37900000  *
   171       H         69.59700000  *  153.81500000  * -46.99200000  *
   172       H         70.06000000  *  155.50100000  * -46.76200000  *
   173       C         71.28700000  *  152.68700000  * -45.17900000  *
   174       H         72.25500000  *  152.58100000  * -45.66000000  *
   175       H         71.36600000  *  152.37900000  * -44.13600000  *
   176       H         70.55600000  *  152.04600000  * -45.67200000  *
   177       C         71.37300000  *  156.49600000  * -44.52600000  *
   178       O         70.66200000  *  156.64300000  * -43.52700000  *
   179       N         71.62500000  *  157.49000000  * -45.37400000  *
   180       H         72.23900000  *  157.32200000  * -46.16900000  *
   181       C         71.01800000  *  158.79600000  * -45.21900000  *
   182       H         70.37900000  *  158.84300000  * -44.33800000  *
   183       C         72.10000000  *  159.86100000  * -45.06900000  *
   184       H         72.79900000  *  159.78100000  * -45.90500000  *
   185       H         71.63400000  *  160.84400000  * -45.14300000  *
   186       C         72.87100000  *  159.84300000  * -43.76800000  *
   187       C         72.34700000  *  160.43100000  * -42.61900000  *
   188       H         71.37700000  *  160.90600000  * -42.66800000  *
   189       C         73.06400000  *  160.45200000  * -41.42500000  *
   190       H         72.63300000  *  160.94600000  * -40.56800000  *
   191       C         74.33000000  *  159.87400000  * -41.37100000  *
   192       O         75.04700000  *  159.90100000  * -40.18700000  *
   193       H         74.69700000  *  160.54100000  * -39.56800000  *
   194       C         74.87500000  *  159.27800000  * -42.50300000  *
   195       H         75.78500000  *  158.71900000  * -42.41900000  *
   196       C         74.14000000  *  159.26700000  * -43.69600000  *
   197       H         74.51800000  *  158.73300000  * -44.56500000  *
   198       C         70.16700000  *  159.17400000  * -46.42900000  *
   199       O         70.41800000  *  158.72400000  * -47.55600000  *
   200       N         69.02600000  *  159.82700000  * -46.21100000  *
   201       H         68.83700000  *  160.13300000  * -45.26300000  *
   202       C         68.29400000  *  160.50600000  * -47.28000000  *
   203       H         68.28200000  *  159.90300000  * -48.19000000  *
   204       C         66.85100000  *  160.83000000  * -46.84400000  *
   205       H         66.33200000  *  159.90500000  * -46.60500000  *
   206       H         66.87100000  *  161.45000000  * -45.94600000  *
   207       C         66.04900000  *  161.54800000  * -47.94200000  *
   208       H         66.53500000  *  162.48900000  * -48.20100000  *
   209       H         66.01600000  *  160.91600000  * -48.83000000  *
   210       C         64.61800000  *  161.84000000  * -47.46400000  *
   211       H         64.14800000  *  160.91200000  * -47.13400000  *
   212       H         64.65900000  *  162.52800000  * -46.61900000  *
   213       C         63.78400000  *  162.45700000  * -48.59600000  *
   214       H         64.31800000  *  163.32600000  * -48.99300000  *
   215       H         63.69500000  *  161.71800000  * -49.40100000  *
   216       N         62.43200000  *  162.86600000  * -48.12900000  *
   217       H         62.48800000  *  163.57100000  * -47.40800000  *
   218       H         61.88700000  *  163.25900000  * -48.88500000  *
   219       H         61.91400000  *  162.08400000  * -47.75300000  *
   220       C         69.10500000  *  161.76100000  * -47.50900000  *
   221       O         69.33700000  *  162.49400000  * -46.55000000  *
   222       N         69.55500000  *  162.00600000  * -48.72500000  *
   223       H         69.34400000  *  161.34200000  * -49.46700000  *
   224       C         70.34900000  *  163.18200000  * -49.01700000  *
   225       H         70.22500000  *  163.93500000  * -48.24000000  *
   226       C         71.81400000  *  162.79200000  * -49.07000000  *
   227       H         71.97800000  *  162.06700000  * -49.86400000  *
   228       H         72.42900000  *  163.67700000  * -49.23900000  *
   229       H         72.10500000  *  162.33200000  * -48.12600000  *
   230       C         69.94400000  *  163.83800000  * -50.32200000  *
   231       O         69.22100000  *  163.25100000  * -51.12800000  *
   232       N         70.40700000  *  165.06400000  * -50.52400000  *
   233       H         70.93200000  *  165.53000000  * -49.79600000  *
   234       C         70.10800000  *  165.77900000  * -51.74600000  *
   235       H         69.54100000  *  165.15900000  * -52.44400000  *
   236       H         69.52200000  *  166.69100000  * -51.53000000  *
   237       H         71.05900000  *  166.04700000  * -52.23900000  *
   238       H         68.08600000  *  164.80700000  * -56.55000000  *
   239       C         68.21200000  *  164.39600000  * -55.53600000  *
   240       O         69.28600000  *  164.50800000  * -54.94200000  *
   241       N         67.13500000  *  163.82300000  * -55.01100000  *
   242       H         66.34000000  *  163.66800000  * -55.61500000  *
   243       C         67.13600000  *  163.21200000  * -53.68800000  *
   244       H         67.86300000  *  163.70700000  * -53.05000000  *
   245       C         65.75500000  *  163.32300000  * -53.02900000  *
   246       H         64.97700000  *  163.06900000  * -53.75000000  *
   247       C         65.64800000  *  162.36600000  * -51.85200000  *
   248       H         66.47200000  *  162.51800000  * -51.15200000  *
   249       H         64.69700000  *  162.53800000  * -51.34700000  *
   250       H         65.65200000  *  161.33900000  * -52.20000000  *
   251       C         65.54000000  *  164.75000000  * -52.56600000  *
   252       H         65.62600000  *  165.42400000  * -53.41600000  *
   253       H         64.53500000  *  164.85100000  * -52.15900000  *
   254       H         66.28400000  *  165.00300000  * -51.81000000  *
   255       C         67.52600000  *  161.76000000  * -53.84700000  *
   256       O         66.97900000  *  161.02800000  * -54.68200000  *
   257       N         68.49600000  *  161.34900000  * -53.04800000  *
   258       H         68.91100000  *  161.99700000  * -52.39100000  *
   259       C         69.01100000  *  159.99200000  * -53.10200000  *
   260       H         68.34600000  *  159.34100000  * -53.67900000  *
   261       C         70.37400000  *  159.97400000  * -53.81600000  *
   262       H         70.77500000  *  158.96500000  * -53.87500000  *
   263       C         70.21400000  *  160.50700000  * -55.21300000  *
   264       H         69.95700000  *  161.56600000  * -55.19000000  *
   265       H         71.15100000  *  160.39100000  * -55.75600000  *
   266       H         69.44200000  *  159.95000000  * -55.73600000  *
   267       C         71.37900000  *  160.85000000  * -53.05700000  *
   268       H         71.56500000  *  160.44500000  * -52.06400000  *
   269       H         72.31500000  *  160.84900000  * -53.61300000  *
   270       H         71.03600000  *  161.88400000  * -52.98400000  *
   271       C         69.19200000  *  159.37200000  * -51.72900000  *
   272       O         69.02000000  *  160.03600000  * -50.68600000  *
   273       N         69.38800000  *  158.06000000  * -51.70800000  *
   274       H         69.46500000  *  157.56900000  * -52.59400000  *
   275       C         69.76000000  *  157.31900000  * -50.51800000  *
   276       H         69.47600000  *  157.87700000  * -49.62800000  *
   277       C         68.99900000  *  155.99900000  * -50.49500000  *
   278       H         69.21500000  *  155.43700000  * -51.40100000  *
   279       H         69.29500000  *  155.41500000  * -49.62300000  *
   280       H         67.93100000  *  156.20700000  * -50.44200000  *
   281       C         71.27800000  *  157.13900000  * -50.53900000  *
   282       O         71.81500000  *  156.46000000  * -51.42000000  *
   283       N         71.97000000  *  157.79100000  * -49.60300000  *
   284       H         71.44500000  *  158.28300000  * -48.88900000  *
   285       C         73.41300000  *  157.73400000  * -49.53500000  *
   286       H         73.80300000  *  157.43200000  * -50.50200000  *
   287       C         73.96100000  *  159.11400000  * -49.18200000  *
   288       H         73.49200000  *  159.84000000  * -49.85100000  *
   289       H         73.62800000  *  159.35800000  * -48.16900000  *
   290       C         75.47300000  *  159.31600000  * -49.26600000  *
   291       H         75.96900000  *  158.63700000  * -48.57100000  *
   292       C         75.94900000  *  159.02000000  * -50.68400000  *
   293       H         75.44100000  *  159.71800000  * -51.34800000  *
   294       H         77.02400000  *  159.18800000  * -50.76300000  *
   295       H         75.74700000  *  157.98700000  * -50.96800000  *
   296       C         75.80400000  *  160.74000000  * -48.87900000  *
   297       H         75.43700000  *  160.94600000  * -47.87600000  *
   298       H         76.88200000  *  160.87900000  * -48.92200000  *
   299       H         75.32000000  *  161.42900000  * -49.57600000  *
   300       C         73.82100000  *  156.71600000  * -48.48500000  *
   301       O         73.39600000  *  156.78100000  * -47.33400000  *
   302       N         74.63900000  *  155.74600000  * -48.88800000  *
   303       H         74.87600000  *  155.72700000  * -49.87700000  *
   304       C         75.13500000  *  154.63300000  * -48.06600000  *
   305       H         74.61400000  *  154.60400000  * -47.10800000  *
   306       C         74.87500000  *  153.32400000  * -48.84800000  *
   307       H         74.45000000  *  153.57100000  * -49.82200000  *
   308       H         75.81200000  *  152.79900000  * -49.03700000  *
   309       C         73.89600000  *  152.34200000  * -48.20400000  *
   310       H         73.03500000  *  152.88400000  * -47.81700000  *
   311       H         73.54500000  *  151.68200000  * -48.99700000  *
   312       C         74.54800000  *  151.49800000  * -47.09300000  *
   313       H         75.52600000  *  151.14100000  * -47.42200000  *
   314       H         74.70200000  *  152.12900000  * -46.21500000  *
   315       C         73.67900000  *  150.28700000  * -46.70500000  *
   316       H         74.12700000  *  149.81700000  * -45.82400000  *
   317       H         72.68300000  *  150.64300000  * -46.41700000  *
   318       N         73.56700000  *  149.29300000  * -47.81100000  *
   319       H         74.47200000  *  148.94100000  * -48.09900000  *
   320       H         72.99800000  *  148.48000000  * -47.53900000  *
   321       H         73.11100000  *  149.69300000  * -48.62200000  *
   322       C         76.62400000  *  154.85200000  * -47.79900000  *
   323       O         77.41800000  *  154.69300000  * -48.71800000  *
   324       N         77.01700000  *  155.22600000  * -46.58100000  *
   325       H         76.29800000  *  155.26800000  * -45.86500000  *
   326       C         78.42200000  *  155.28900000  * -46.15900000  *
   327       H         79.06600000  *  155.59300000  * -46.98900000  *
   328       C         78.56700000  *  156.26000000  * -44.97900000  *
   329       H         78.02700000  *  155.87500000  * -44.10900000  *
   330       H         79.62500000  *  156.33900000  * -44.73000000  *
   331       C         78.01500000  *  157.64300000  * -45.34000000  *
   332       H         78.45100000  *  157.95800000  * -46.27300000  *
   333       H         76.93600000  *  157.57500000  * -45.50000000  *
   334       C         78.25100000  *  158.72500000  * -44.27900000  *
   335       H         77.97800000  *  159.68000000  * -44.73200000  *
   336       H         77.56000000  *  158.53300000  * -43.46900000  *
   337       C         79.67700000  *  158.85000000  * -43.70900000  *
   338       H         80.38400000  *  158.36300000  * -44.39700000  *
   339       H         79.95000000  *  159.91100000  * -43.68600000  *
   340       N         79.78800000  *  158.26900000  * -42.33500000  *
   341       H         79.63700000  *  157.26100000  * -42.37000000  *
   342       H         80.69600000  *  158.42600000  * -41.93200000  *
   343       H         79.10400000  *  158.64600000  * -41.70100000  *
   344       C         78.82300000  *  153.89100000  * -45.72900000  *
   345       O         78.09100000  *  153.31500000  * -44.93700000  *
   346       N         79.90700000  *  153.32000000  * -46.24700000  *
   347       H         80.40500000  *  153.76400000  * -47.01000000  *
   348       C         80.34300000  *  152.02200000  * -45.76800000  *
   349       H         79.49500000  *  151.49800000  * -45.35900000  *
   350       C         80.94400000  *  151.18600000  * -46.89500000  *
   351       H         81.78600000  *  151.78200000  * -47.16900000  *
   352       C         81.42400000  *  149.85200000  * -46.34500000  *
   353       H         80.65600000  *  149.35200000  * -45.75200000  *
   354       H         81.67900000  *  149.19900000  * -47.17900000  *
   355       H         82.34500000  *  149.95700000  * -45.76100000  *
   356       C         79.89700000  *  150.97600000  * -47.99700000  *
   357       H         79.60200000  *  151.87000000  * -48.50000000  *
   358       H         80.28300000  *  150.30500000  * -48.75000000  *
   359       C         78.59100000  *  150.36100000  * -47.52600000  *
   360       H         78.17700000  *  150.90100000  * -46.69000000  *
   361       H         77.89400000  *  150.33700000  * -48.36300000  *
   362       H         78.77100000  *  149.33300000  * -47.20900000  *
   363       C         81.33300000  *  152.07100000  * -44.61400000  *
   364       O         82.16700000  *  152.98000000  * -44.51900000  *
   365       N         81.21100000  *  151.07100000  * -43.74300000  *
   366       H         80.50300000  *  150.36100000  * -43.92800000  *
   367       C         82.04400000  *  150.90200000  * -42.55200000  *
   368       H         81.47500000  *  151.18100000  * -41.66300000  *
   369       H         82.35800000  *  149.86100000  * -42.45900000  *
   370       H         82.94700000  *  151.51400000  * -42.62000000  *
   371       H         81.25700000  *  144.04600000  * -57.89900000  *
   372       C         80.50000000  *  144.84100000  * -57.88800000  *
   373       O         79.71500000  *  144.99000000  * -58.82400000  *
   374       N         80.49900000  *  145.60300000  * -56.79700000  *
   375       H         81.28000000  *  145.52500000  * -56.16600000  *
   376       C         79.57000000  *  146.70600000  * -56.61200000  *
   377       H         78.57500000  *  146.34400000  * -56.42300000  *
   378       C         80.00500000  *  147.61000000  * -55.44200000  *
   379       H         80.89800000  *  148.18000000  * -55.68500000  *
   380       C         78.90600000  *  148.60800000  * -55.12500000  *
   381       H         77.92000000  *  148.14100000  * -55.17600000  *
   382       H         79.04500000  *  148.98700000  * -54.11600000  *
   383       H         78.93800000  *  149.43600000  * -55.83300000  *
   384       C         80.32100000  *  146.76200000  * -54.20900000  *
   385       H         81.19200000  *  146.13400000  * -54.40600000  *
   386       H         80.59400000  *  147.42200000  * -53.38900000  *
   387       C         79.18400000  *  145.87900000  * -53.76500000  *
   388       H         78.77800000  *  145.31100000  * -54.59400000  *
   389       H         79.50900000  *  145.12200000  * -53.06500000  *
   390       H         78.38800000  *  146.48300000  * -53.33500000  *
   391       C         79.54300000  *  147.54500000  * -57.87900000  *
   392       O         78.48200000  *  147.77900000  * -58.45100000  *
   393       N         80.72300000  *  147.98900000  * -58.30900000  *
   394       H         81.55800000  *  147.70100000  * -57.81200000  *
   395       C         80.85900000  *  148.80400000  * -59.51100000  *
   396       H         80.33900000  *  149.74600000  * -59.38600000  *
   397       H         81.92800000  *  148.98500000  * -59.72900000  *
   398       H         80.37800000  *  148.32200000  * -60.38100000  *
   399       H         78.96400000  *  146.08700000  * -61.65600000  *
   400       C         77.87300000  *  146.08700000  * -61.51600000  *
   401       O         77.11500000  *  145.89500000  * -62.46400000  *
   402       N         77.44600000  *  146.31800000  * -60.28000000  *
   403       H         78.13400000  *  146.42500000  * -59.54900000  *
   404       C         76.02800000  *  146.35200000  * -59.94500000  *
   405       H         75.53300000  *  145.47600000  * -60.35900000  *
   406       C         75.84100000  *  146.37400000  * -58.43100000  *
   407       H         76.20500000  *  147.30400000  * -58.01800000  *
   408       H         74.76300000  *  146.35700000  * -58.24200000  *
   409       C         76.47200000  *  145.22200000  * -57.65900000  *
   410       H         77.55000000  *  145.23900000  * -57.74900000  *
   411       C         76.08000000  *  145.34100000  * -56.19200000  *
   412       H         74.99900000  *  145.23000000  * -56.07700000  *
   413       H         76.57300000  *  144.55300000  * -55.62900000  *
   414       H         76.38500000  *  146.30900000  * -55.80100000  *
   415       C         75.99600000  *  143.89000000  * -58.23600000  *
   416       H         76.41500000  *  143.73000000  * -59.22900000  *
   417       H         76.32800000  *  143.07800000  * -57.59100000  *
   418       H         74.90500000  *  143.87400000  * -58.30500000  *
   419       C         75.32200000  *  147.55900000  * -60.54800000  *
   420       O         74.09500000  *  147.56800000  * -60.66200000  *
   421       N         76.08400000  *  148.63100000  * -60.82900000  *
   422       H         77.08200000  *  148.53500000  * -60.67700000  *
   423       C         75.60100000  *  149.83300000  * -61.53400000  *
   424       H         74.83700000  *  150.33500000  * -60.94100000  *
   425       H         76.43800000  *  150.53300000  * -61.75900000  *
   426       H         75.13800000  *  149.54900000  * -62.49200000  *
   427       H         62.79000000  *  145.77200000  * -59.27600000  *
   428       C         63.71000000  *  145.72000000  * -58.67500000  *
   429       O         63.77900000  *  145.02200000  * -57.66400000  *
   430       N         64.72400000  *  146.45200000  * -59.11400000  *
   431       H         64.63800000  *  147.05100000  * -59.92700000  *
   432       C         65.97100000  *  146.53500000  * -58.38100000  *
   433       H         65.88400000  *  146.09200000  * -57.38600000  *
   434       C         67.11600000  *  145.87700000  * -59.11400000  *
   435       H         67.33600000  *  146.42600000  * -60.03000000  *
   436       C         68.35100000  *  145.87800000  * -58.21400000  *
   437       H         68.14700000  *  145.31400000  * -57.31800000  *
   438       H         69.21000000  *  145.44500000  * -58.72400000  *
   439       H         68.64100000  *  146.89000000  * -57.94500000  *
   440       C         66.72800000  *  144.44400000  * -59.47800000  *
   441       H         66.54900000  *  143.87300000  * -58.56400000  *
   442       H         65.81500000  *  144.42400000  * -60.06800000  *
   443       C         67.77400000  *  143.72700000  * -60.29600000  *
   444       H         68.68300000  *  143.57700000  * -59.72200000  *
   445       H         67.37700000  *  142.75300000  * -60.59800000  *
   446       H         68.02300000  *  144.31300000  * -61.18000000  *
   447       C         66.29500000  *  148.01000000  * -58.22000000  *
   448       O         66.21200000  *  148.78000000  * -59.18400000  *
   449       N         66.55800000  *  148.43600000  * -56.98200000  *
   450       H         66.62500000  *  147.75100000  * -56.23300000  *
   451       C         66.89700000  *  149.83100000  * -56.67500000  *
   452       H         66.07900000  *  150.47400000  * -56.99700000  *
   453       C         67.09700000  *  150.02600000  * -55.16400000  *
   454       H         67.88400000  *  149.35600000  * -54.81400000  *
   455       C         67.47900000  *  151.46200000  * -54.79400000  *
   456       H         66.65300000  *  152.13800000  * -55.00900000  *
   457       H         67.70900000  *  151.51100000  * -53.73100000  *
   458       H         68.35600000  *  151.78500000  * -55.35100000  *
   459       C         65.80300000  *  149.70700000  * -54.41400000  *
   460       H         65.53300000  *  148.66100000  * -54.52800000  *
   461       H         65.95600000  *  149.90200000  * -53.36000000  *
   462       H         64.99200000  *  150.32800000  * -54.78700000  *
   463       C         68.15500000  *  150.21800000  * -57.44800000  *
   464       O         69.18600000  *  149.55200000  * -57.32400000  *
   465       N         68.08000000  *  151.28300000  * -58.25100000  *
   466       H         67.22500000  *  151.80400000  * -58.24500000  *
   467       C         69.18900000  *  151.69800000  * -59.08000000  *
   468       H         69.52500000  *  150.81900000  * -59.63900000  *
   469       C         68.73700000  *  152.76800000  * -60.08300000  *
   470       H         67.83400000  *  152.41100000  * -60.57900000  *
   471       H         68.47700000  *  153.68100000  * -59.53700000  *
   472       C         69.79100000  *  153.06900000  * -61.13100000  *
   473       H         70.72100000  *  153.35000000  * -60.64200000  *
   474       H         69.97400000  *  152.16800000  * -61.71600000  *
   475       C         69.35100000  *  154.17900000  * -62.08100000  *
   476       H         68.50200000  *  153.81400000  * -62.66100000  *
   477       H         69.02300000  *  155.05600000  * -61.52200000  *
   478       C         70.49800000  *  154.55900000  * -63.02400000  *
   479       H         71.33900000  *  154.89000000  * -62.40800000  *
   480       H         70.81900000  *  153.66100000  * -63.56600000  *
   481       N         70.11800000  *  155.62600000  * -63.99700000  *
   482       H         69.74700000  *  156.41600000  * -63.48300000  *
   483       H         70.92600000  *  155.93300000  * -64.52500000  *
   484       H         69.41500000  *  155.27800000  * -64.63600000  *
   485       C         70.36000000  *  152.21400000  * -58.25300000  *
   486       O         70.19400000  *  153.07400000  * -57.38700000  *
   487       N         71.53700000  *  151.64500000  * -58.50700000  *
   488       H         71.59600000  *  150.90400000  * -59.18600000  *
   489       C         72.75000000  *  152.07400000  * -57.83600000  *
   490       H         72.53800000  *  152.52600000  * -56.87100000  *
   491       C         73.72700000  *  150.91100000  * -57.67000000  *
   492       H         73.31500000  *  150.22100000  * -56.93700000  *
   493       H         73.77900000  *  150.36900000  * -58.62000000  *
   494       C         75.16700000  *  151.27300000  * -57.28800000  *
   495       H         75.65500000  *  151.80300000  * -58.10000000  *
   496       C         75.18300000  *  152.16500000  * -56.05900000  *
   497       H         74.60800000  *  151.72100000  * -55.25200000  *
   498       H         76.21000000  *  152.29600000  * -55.73500000  *
   499       H         74.78900000  *  153.14000000  * -56.31200000  *
   500       C         75.93300000  *  149.99400000  * -57.01300000  *
   501       H         75.98300000  *  149.42100000  * -57.93300000  *
   502       H         76.94600000  *  150.24200000  * -56.71200000  *
   503       H         75.43500000  *  149.41000000  * -56.23200000  *
   504       C         73.31900000  *  153.11300000  * -58.79500000  *
   505       O         73.76900000  *  152.77900000  * -59.89700000  *
   506       N         73.26700000  *  154.36900000  * -58.37800000  *
   507       H         72.92600000  *  154.57000000  * -57.44900000  *
   508       C         73.73400000  *  155.46600000  * -59.19700000  *
   509       H         73.47500000  *  155.26500000  * -60.23600000  *
   510       C         73.02500000  *  156.74200000  * -58.76000000  *
   511       H         73.45000000  *  157.06300000  * -57.80900000  *
   512       H         73.23600000  *  157.53300000  * -59.48700000  *
   513       C         71.51300000  *  156.60300000  * -58.58700000  *
   514       H         71.27400000  *  155.80900000  * -57.88500000  *
   515       C         70.97400000  *  157.88000000  * -58.01900000  *
   516       H         71.37000000  *  158.74600000  * -58.56000000  *
   517       H         69.88800000  *  157.89100000  * -58.09300000  *
   518       H         71.22100000  *  157.96000000  * -56.96600000  *
   519       C         70.85100000  *  156.29000000  * -59.92300000  *
   520       H         71.28300000  *  155.39700000  * -60.34200000  *
   521       H         69.78900000  *  156.14400000  * -59.75100000  *
   522       H         71.00300000  *  157.12700000  * -60.60700000  *
   523       C         75.24500000  *  155.67800000  * -59.15800000  *
   524       O         75.83900000  *  156.04700000  * -60.17600000  *
   525       N         75.86200000  *  155.44600000  * -57.99600000  *
   526       H         75.29500000  *  155.17900000  * -57.20400000  *
   527       C         77.30800000  *  155.64700000  * -57.82900000  *
   528       H         77.80800000  *  155.40400000  * -58.76600000  *
   529       C         77.60000000  *  157.11700000  * -57.51900000  *
   530       H         76.91700000  *  157.54400000  * -56.80300000  *
   531       H         78.58200000  *  157.17000000  * -57.04800000  *
   532       C         77.65600000  *  157.97500000  * -58.75600000  *
   533       O         78.67800000  *  157.91700000  * -59.48300000  *
   534       O         76.67400000  *  158.70400000  * -59.00000000  *
   535       C         77.97900000  *  154.81700000  * -56.73400000  *
   536       O         77.37100000  *  154.52100000  * -55.70400000  *
   537       N         79.24700000  *  154.47700000  * -56.96600000  *
   538       H         79.69800000  *  154.82400000  * -57.79800000  *
   539       C         80.06100000  *  153.73800000  * -56.00300000  *
   540       H         79.55400000  *  153.69900000  * -55.05200000  *
   541       C         80.36600000  *  152.29800000  * -56.50400000  *
   542       H         79.42700000  *  151.75200000  * -56.56200000  *
   543       C         80.98100000  *  152.34300000  * -57.88400000  *
   544       H         82.06600000  *  152.43300000  * -57.82100000  *
   545       H         80.74600000  *  151.41400000  * -58.37900000  *
   546       H         80.59600000  *  153.14500000  * -58.51000000  *
   547       C         81.29900000  *  151.58800000  * -55.53900000  *
   548       H         80.81100000  *  151.54900000  * -54.57200000  *
   549       H         81.47300000  *  150.57200000  * -55.87800000  *
   550       H         82.25900000  *  152.09200000  * -55.44900000  *
   551       C         81.36500000  *  154.53600000  * -55.81000000  *
   552       O         82.27000000  *  154.48900000  * -56.64700000  *
   553       N         81.45200000  *  155.28200000  * -54.71000000  *
   554       H         80.67600000  *  155.30400000  * -54.06400000  *
   555       C         82.62100000  *  156.11100000  * -54.44300000  *
   556       H         83.20500000  *  156.21800000  * -55.35800000  *
   557       H         82.32200000  *  157.12800000  * -54.14500000  *
   558       H         83.29700000  *  155.73900000  * -53.65600000  *
   559       H         84.58000000  *  155.17100000  * -47.07300000  *
   560       C         84.22500000  *  154.98400000  * -48.09100000  *
   561       O         84.63900000  *  155.65900000  * -49.04200000  *
   562       N         83.35800000  *  153.99100000  * -48.22200000  *
   563       H         83.13600000  *  153.42800000  * -47.41700000  *
   564       C         82.77600000  *  153.65100000  * -49.50600000  *
   565       H         83.37000000  *  154.04700000  * -50.31700000  *
   566       C         82.71900000  *  152.14000000  * -49.66000000  *
   567       H         83.74000000  *  151.87500000  * -49.95700000  *
   568       H         82.64400000  *  151.54600000  * -48.78400000  *
   569       C         81.82600000  *  151.61900000  * -50.77900000  *
   570       H         80.79100000  *  151.88400000  * -50.58700000  *
   571       C         82.25800000  *  152.23100000  * -52.09200000  *
   572       H         83.31100000  *  152.49100000  * -52.08900000  *
   573       H         82.09300000  *  151.51300000  * -52.88400000  *
   574       H         81.65400000  *  153.10900000  * -52.31200000  *
   575       C         81.89900000  *  150.09400000  * -50.82200000  *
   576       H         81.91300000  *  149.66400000  * -49.82700000  *
   577       H         81.05200000  *  149.70600000  * -51.39100000  *
   578       H         82.82500000  *  149.80300000  * -51.32100000  *
   579       C         81.36700000  *  154.23200000  * -49.54800000  *
   580       O         80.51800000  *  153.85700000  * -48.74500000  *
   581       N         81.13100000  *  155.16100000  * -50.46700000  *
   582       H         81.84500000  *  155.34800000  * -51.16200000  *
   583       C         79.82200000  *  155.78100000  * -50.60800000  *
   584       H         79.27400000  *  155.67000000  * -49.68700000  *
   585       C         79.96700000  *  157.27800000  * -50.86800000  *
   586       H         80.42300000  *  157.50400000  * -51.79700000  *
   587       H         78.95400000  *  157.66400000  * -50.98900000  *
   588       C         80.57600000  *  158.04300000  * -49.72300000  *
   589       C         79.79300000  *  158.48000000  * -48.65600000  *
   590       H         78.73500000  *  158.25400000  * -48.66900000  *
   591       C         80.35600000  *  159.18600000  * -47.59400000  *
   592       H         79.75300000  *  159.56200000  * -46.79700000  *
   593       C         81.71600000  *  159.45200000  * -47.58700000  *
   594       O         82.27600000  *  160.12500000  * -46.52100000  *
   595       H         83.20600000  *  160.30800000  * -46.74500000  *
   596       C         82.51400000  *  159.02600000  * -48.63700000  *
   597       H         83.58200000  *  159.23300000  * -48.65000000  *
   598       C         81.94100000  *  158.32800000  * -49.69800000  *
   599       H         82.57400000  *  157.98100000  * -50.50200000  *
   600       C         79.04800000  *  155.15800000  * -51.76500000  *
   601       O         79.54400000  *  155.08000000  * -52.88800000  *
   602       N         77.86200000  *  154.62400000  * -51.49600000  *
   603       H         77.53400000  *  154.65000000  * -50.53600000  *
   604       C         76.98200000  *  154.05300000  * -52.51300000  *
   605       H         77.50600000  *  154.00000000  * -53.46100000  *
   606       C         76.55200000  *  152.62000000  * -52.15200000  *
   607       H         75.86900000  *  152.66300000  * -51.31300000  *
   608       H         76.00300000  *  152.21400000  * -53.00200000  *
   609       C         77.69100000  *  151.65200000  * -51.79100000  *
   610       H         78.20600000  *  152.00300000  * -50.89700000  *
   611       C         77.12300000  *  150.26300000  * -51.50600000  *
   612       H         76.62200000  *  149.87100000  * -52.39300000  *
   613       H         77.92900000  *  149.58500000  * -51.22200000  *
   614       H         76.41100000  *  150.31800000  * -50.68400000  *
   615       C         78.69400000  *  151.52800000  * -52.93100000  *
   616       H         79.21100000  *  152.47500000  * -53.06500000  *
   617       H         79.43200000  *  150.76800000  * -52.68500000  *
   618       H         78.17900000  *  151.26100000  * -53.85400000  *
   619       C         75.78500000  *  154.98300000  * -52.67300000  *
   620       O         75.10100000  *  155.26000000  * -51.68500000  *
   621       N         75.54700000  *  155.50800000  * -53.87800000  *
   622       H         76.14500000  *  155.25500000  * -54.66000000  *
   623       C         74.40900000  *  156.37500000  * -54.09400000  *
   624       H         73.97600000  *  156.70200000  * -53.15000000  *
   625       C         74.83400000  *  157.63700000  * -54.81800000  *
   626       H         75.25500000  *  157.34500000  * -55.76600000  *
   627       C         73.61400000  *  158.52200000  * -55.10900000  *
   628       H         73.11700000  *  158.76900000  * -54.17500000  *
   629       H         73.94100000  *  159.43100000  * -55.61500000  *
   630       H         72.91600000  *  158.00900000  * -55.76200000  *
   631       C         75.84000000  *  158.38200000  * -53.94900000  *
   632       H         75.28100000  *  158.78400000  * -53.13000000  *
   633       H         76.65600000  *  157.75800000  * -53.60500000  *
   634       H         76.26100000  *  159.20400000  * -54.52500000  *
   635       C         73.31400000  *  155.64400000  * -54.85300000  *
   636       O         73.49500000  *  155.22100000  * -55.99400000  *
   637       N         72.20700000  *  155.38800000  * -54.16100000  *
   638       H         72.14000000  *  155.74400000  * -53.21100000  *
   639       C         71.02800000  *  154.71500000  * -54.69700000  *
   640       H         71.27700000  *  154.24700000  * -55.64500000  *
   641       C         70.57100000  *  153.62500000  * -53.72200000  *
   642       H         70.43600000  *  154.06800000  * -52.73600000  *
   643       H         69.59600000  *  153.26400000  * -54.04400000  *
   644       C         71.50300000  *  152.43300000  * -53.60100000  *
   645       C         71.36700000  *  151.34000000  * -54.47900000  *
   646       H         70.62800000  *  151.36400000  * -55.26600000  *
   647       C         72.18400000  *  150.20500000  * -54.33000000  *
   648       H         72.06800000  *  149.36300000  * -55.00000000  *
   649       C         73.14800000  *  150.16200000  * -53.30900000  *
   650       H         73.77700000  *  149.28900000  * -53.19500000  *
   651       C         73.29200000  *  151.25500000  * -52.43600000  *
   652       H         74.02600000  *  151.21500000  * -51.64600000  *
   653       C         72.47500000  *  152.39200000  * -52.58300000  *
   654       H         72.58700000  *  153.22800000  * -51.90600000  *
   655       C         69.89500000  *  155.71700000  * -54.93700000  *
   656       O         69.78000000  *  156.71700000  * -54.22600000  *
   657       N         69.03200000  *  155.45300000  * -55.92000000  *
   658       H         69.17600000  *  154.61500000  * -56.47500000  *
   659       C         67.74700000  *  156.16300000  * -56.02200000  *
   660       H         67.96500000  *  157.21300000  * -56.22300000  *
   661       C         66.91100000  *  155.63400000  * -57.20300000  *
   662       H         66.03900000  *  156.28000000  * -57.30600000  *
   663       H         67.49900000  *  155.70200000  * -58.11900000  *
   664       C         66.44500000  *  154.18500000  * -57.01000000  *
   665       H         67.32600000  *  153.54200000  * -56.98100000  *
   666       H         65.93600000  *  154.09800000  * -56.05400000  *
   667       C         65.47000000  *  153.68100000  * -58.07900000  *
   668       O         64.63900000  *  154.45500000  * -58.60600000  *
   669       O         65.48900000  *  152.46300000  * -58.35500000  *
   670       C         66.96600000  *  156.09600000  * -54.69000000  *
   671       O         67.00100000  *  155.08500000  * -53.98300000  *
   672       N         66.26300000  *  157.17000000  * -54.33000000  *
   673       H         66.23900000  *  157.97300000  * -54.94200000  *
   674       C         65.39500000  *  157.18700000  * -53.15000000  *
   675       H         65.84900000  *  156.58400000  * -52.36200000  *
   676       C         65.29400000  *  158.62500000  * -52.63100000  *
   677       H         66.29700000  *  158.97800000  * -52.39200000  *
   678       H         64.89700000  *  159.26200000  * -53.42200000  *
   679       C         64.43100000  *  158.78300000  * -51.39400000  *
   680       C         63.10200000  *  159.23200000  * -51.50600000  *
   681       H         62.68900000  *  159.47500000  * -52.47600000  *
   682       C         62.30300000  *  159.36200000  * -50.35600000  *
   683       H         61.28300000  *  159.70600000  * -50.44600000  *
   684       C         62.82900000  *  159.04300000  * -49.09300000  *
   685       H         62.21100000  *  159.13200000  * -48.20900000  *
   686       C         64.16100000  *  158.60800000  * -48.97900000  *
   687       H         64.56700000  *  158.36500000  * -48.00700000  *
   688       C         64.96000000  *  158.47400000  * -50.12800000  *
   689       H         65.98000000  *  158.12700000  * -50.04000000  *
   690       C         64.00800000  *  156.59900000  * -53.46500000  *
   691       O         63.39800000  *  156.94700000  * -54.47900000  *
   692       N         63.48900000  *  155.75300000  * -52.57000000  *
   693       H         64.06500000  *  155.49300000  * -51.77600000  *
   694       C         62.10000000  *  155.27000000  * -52.57400000  *
   695       H         61.52700000  *  155.78100000  * -53.35000000  *
   696       C         62.04300000  *  153.75700000  * -52.83200000  *
   697       H         62.75700000  *  153.25800000  * -52.17800000  *
   698       H         61.04600000  *  153.41700000  * -52.55200000  *
   699       C         62.29900000  *  153.36700000  * -54.29900000  *
   700       H         62.02700000  *  154.19400000  * -54.95500000  *
   701       C         63.76400000  *  152.99900000  * -54.52200000  *
   702       H         64.04300000  *  152.18100000  * -53.86200000  *
   703       H         63.92000000  *  152.70900000  * -55.56000000  *
   704       H         64.39600000  *  153.85700000  * -54.30100000  *
   705       C         61.44700000  *  152.15700000  * -54.68900000  *
   706       H         60.39300000  *  152.37200000  * -54.51200000  *
   707       H         61.57700000  *  151.94300000  * -55.74700000  *
   708       H         61.73600000  *  151.28600000  * -54.10400000  *
   709       C         61.44300000  *  155.59300000  * -51.23100000  *
   710       O         62.06800000  *  155.47300000  * -50.18400000  *
   711       N         60.19200000  *  156.03800000  * -51.24200000  *
   712       H         59.72700000  *  156.14300000  * -52.13600000  *
   713       C         59.59600000  *  156.73300000  * -50.09800000  *
   714       H         60.32000000  *  157.47000000  * -49.74600000  *
   715       C         58.37000000  *  157.51300000  * -50.58300000  *
   716       H         57.58700000  *  156.80800000  * -50.86100000  *
   717       H         58.01500000  *  158.12400000  * -49.75500000  *
   718       C         58.63300000  *  158.42200000  * -51.76300000  *
   719       N         58.78400000  *  158.00800000  * -53.09200000  *
   720       C         59.01900000  *  159.12600000  * -53.80100000  *
   721       H         59.18100000  *  159.16000000  * -54.87300000  *
   722       N         59.02300000  *  160.20000000  * -52.99400000  *
   723       H         59.17300000  *  161.15800000  * -53.29800000  *
   724       C         58.78100000  *  159.77700000  * -51.70600000  *
   725       H         58.72100000  *  160.39200000  * -50.81700000  *
   726       C         59.27500000  *  155.85900000  * -48.86800000  *
   727       O         59.08100000  *  156.41100000  * -47.78400000  *
   728       N         59.22900000  *  154.52400000  * -48.99600000  *
   729       H         59.40000000  *  154.12200000  * -49.90900000  *
   730       C         58.92300000  *  153.59700000  * -47.89300000  *
   731       H         59.37000000  *  153.99600000  * -46.98100000  *
   732       C         57.39000000  *  153.56000000  * -47.69700000  *
   733       H         57.05000000  *  154.57600000  * -47.49000000  *
   734       H         56.90900000  *  153.23000000  * -48.61900000  *
   735       C         56.93500000  *  152.65400000  * -46.54300000  *
   736       H         56.80100000  *  151.64000000  * -46.91700000  *
   737       H         57.70200000  *  152.64300000  * -45.77000000  *
   738       C         55.64300000  *  153.12700000  * -45.88600000  *
   739       O         55.65000000  *  153.79200000  * -44.86300000  *
   740       N         54.49000000  *  152.80400000  * -46.43000000  *
   741       H         53.66000000  *  153.13400000  * -45.96000000  *
   742       H         54.45500000  *  152.28600000  * -47.29000000  *
   743       C         59.52400000  *  152.19100000  * -48.11300000  *
   744       O         59.70100000  *  151.75700000  * -49.25100000  *
   745       N         59.83000000  *  151.47000000  * -47.02600000  *
   746       H         59.64600000  *  151.86900000  * -46.12000000  *
   747       C         60.23000000  *  150.05200000  * -47.05500000  *
   748       H         60.55000000  *  149.80800000  * -48.06400000  *
   749       C         61.44100000  *  149.80100000  * -46.13800000  *
   750       H         61.80500000  *  148.79000000  * -46.33200000  *
   751       H         62.24100000  *  150.48700000  * -46.41600000  *
   752       C         61.14900000  *  149.93200000  * -44.63800000  *
   753       O         60.30100000  *  149.17000000  * -44.12800000  *
   754       O         61.79500000  *  150.77400000  * -43.97300000  *
   755       C         59.05700000  *  149.11000000  * -46.71900000  *
   756       O         58.03100000  *  149.53400000  * -46.16800000  *
   757       N         59.19100000  *  147.81900000  * -47.04800000  *
   758       H         60.03800000  *  147.50900000  * -47.52500000  *
   759       C         58.10100000  *  146.88000000  * -46.84100000  *
   760       H         57.21800000  *  147.32500000  * -47.29300000  *
   761       C         58.41200000  *  145.57700000  * -47.59200000  *
   762       H         58.61300000  *  145.80400000  * -48.64400000  *
   763       H         59.28800000  *  145.12100000  * -47.15800000  *
   764       C         57.28700000  *  144.52700000  * -47.51900000  *
   765       H         57.05600000  *  144.28000000  * -46.48700000  *
   766       C         56.00700000  *  145.04400000  * -48.19600000  *
   767       H         56.23500000  *  145.37800000  * -49.20200000  *
   768       H         55.26800000  *  144.24500000  * -48.23100000  *
   769       H         55.59500000  *  145.87000000  * -47.62900000  *
   770       C         57.76800000  *  143.24900000  * -48.17500000  *
   771       H         58.61500000  *  142.85400000  * -47.62000000  *
   772       H         56.97300000  *  142.50400000  * -48.17100000  *
   773       H         58.06400000  *  143.44500000  * -49.20700000  *
   774       C         57.76400000  *  146.61300000  * -45.36900000  *
   775       O         56.60900000  *  146.37600000  * -45.03000000  *
   776       N         58.75700000  *  146.67700000  * -44.48800000  *
   777       H         59.64000000  *  147.08600000  * -44.79000000  *
   778       C         58.49100000  *  146.46700000  * -43.07300000  *
   779       H         57.97900000  *  145.55100000  * -42.87200000  *
   780       C         59.78200000  *  146.47800000  * -42.25400000  *
   781       H         60.44800000  *  145.70000000  * -42.62000000  *
   782       H         60.28600000  *  147.44000000  * -42.35600000  *
   783       C         59.49200000  *  146.22900000  * -40.76500000  *
   784       H         58.94200000  *  147.08300000  * -40.37400000  *
   785       H         58.87100000  *  145.33200000  * -40.67600000  *
   786       C         60.74500000  *  146.03800000  * -39.93500000  *
   787       H         61.36100000  *  145.25900000  * -40.37900000  *
   788       H         61.30800000  *  146.97100000  * -39.90700000  *
   789       C         60.37600000  *  145.60700000  * -38.51700000  *
   790       H         59.98500000  *  144.58900000  * -38.53700000  *
   791       H         61.27900000  *  145.61300000  * -37.90300000  *
   792       N         59.34600000  *  146.53100000  * -37.94700000  *
   793       H         58.44600000  *  146.48100000  * -38.44300000  *
   794       H         59.09000000  *  146.27800000  * -37.00400000  *
   795       H         59.61300000  *  147.50600000  * -37.97800000  *
   796       C         57.55800000  *  147.53800000  * -42.51200000  *
   797       O         56.61300000  *  147.23400000  * -41.78300000  *
   798       N         57.83900000  *  148.80900000  * -42.81000000  *
   799       H         58.67300000  *  148.99000000  * -43.37400000  *
   800       C         57.02300000  *  149.93800000  * -42.34900000  *
   801       H         56.92500000  *  149.87600000  * -41.26300000  *
   802       C         57.73500000  *  151.25500000  * -42.69500000  *
   803       H         58.76200000  *  151.20400000  * -42.32800000  *
   804       H         57.76200000  *  151.38000000  * -43.77800000  *
   805       C         57.04600000  *  152.46600000  * -42.04800000  *
   806       H         56.04300000  *  152.57600000  * -42.46200000  *
   807       H         56.96100000  *  152.29700000  * -40.97300000  *
   808       C         57.84300000  *  153.75600000  * -42.28600000  *
   809       H         58.82100000  *  153.66500000  * -41.80900000  *
   810       H         57.98300000  *  153.90700000  * -43.35800000  *
   811       C         57.09000000  *  154.95200000  * -41.69200000  *
   812       H         56.12100000  *  155.03800000  * -42.19300000  *
   813       H         56.90100000  *  154.75500000  * -40.63200000  *
   814       N         57.85400000  *  156.21600000  * -41.84100000  *
   815       H         58.02700000  *  156.42900000  * -42.81200000  *
   816       H         57.34800000  *  156.99400000  * -41.44300000  *
   817       H         58.74500000  *  156.16200000  * -41.37000000  *
   818       C         55.61200000  *  149.84500000  * -42.92700000  *
   819       O         54.63900000  *  150.09100000  * -42.22100000  *
   820       N         55.49500000  *  149.42600000  * -44.18900000  *
   821       H         56.35000000  *  149.26300000  * -44.71300000  *
   822       C         54.20500000  *  149.26000000  * -44.85200000  *
   823       H         53.62600000  *  150.17500000  * -44.72500000  *
   824       C         54.41000000  *  148.98800000  * -46.34000000  *
   825       H         54.98900000  *  149.80200000  * -46.77700000  *
   826       H         55.00200000  *  148.07700000  * -46.45200000  *
   827       C         53.12600000  *  148.85300000  * -47.10800000  *
   828       C         52.23100000  *  149.92200000  * -47.18600000  *
   829       H         52.46300000  *  150.85600000  * -46.69900000  *
   830       C         51.01500000  *  149.79500000  * -47.88400000  *
   831       H         50.32500000  *  150.62800000  * -47.91800000  *
   832       C         50.69700000  *  148.60300000  * -48.50200000  *
   833       H         49.75200000  *  148.50200000  * -49.02000000  *
   834       C         51.58700000  *  147.52100000  * -48.43200000  *
   835       H         51.33500000  *  146.58300000  * -48.91200000  *
   836       C         52.79500000  *  147.65400000  * -47.73300000  *
   837       H         53.46700000  *  146.81000000  * -47.67200000  *
   838       C         53.37400000  *  148.12200000  * -44.22700000  *
   839       O         52.16900000  *  148.28300000  * -44.00900000  *
   840       N         54.01600000  *  146.98100000  * -43.96600000  *
   841       H         55.00900000  *  146.90600000  * -44.17900000  *
   842       C         53.33800000  *  145.83600000  * -43.34100000  *
   843       H         52.47600000  *  145.52800000  * -43.93400000  *
   844       C         54.29200000  *  144.65000000  * -43.17000000  *
   845       H         55.15800000  *  145.02700000  * -42.63600000  *
   846       H         53.80700000  *  143.89200000  * -42.54700000  *
   847       C         54.73100000  *  144.00400000  * -44.46100000  *
   848       H         53.84700000  *  143.61400000  * -44.95900000  *
   849       H         55.19200000  *  144.69400000  * -45.15000000  *
   850       S         55.79700000  *  142.58100000  * -44.15400000  *
   851       C         57.05400000  *  143.29200000  * -43.18800000  *
   852       H         56.67800000  *  143.65800000  * -42.23500000  *
   853       H         57.80700000  *  142.53400000  * -42.98200000  *
   854       H         57.44300000  *  144.07900000  * -43.80900000  *
   855       C         52.84400000  *  146.26000000  * -41.95900000  *
   856       O         51.68200000  *  146.03200000  * -41.61400000  *
   857       N         53.72600000  *  146.88400000  * -41.17900000  *
   858       H         54.70100000  *  146.95700000  * -41.45300000  *
   859       C         53.34300000  *  147.35100000  * -39.84600000  *
   860       H         53.03400000  *  146.49700000  * -39.23800000  *
   861       C         54.50500000  *  148.07700000  * -39.15700000  *
   862       H         54.94100000  *  148.81500000  * -39.83000000  *
   863       H         54.12400000  *  148.60600000  * -38.28400000  *
   864       C         55.58400000  *  147.11500000  * -38.68500000  *
   865       O         55.26200000  *  145.90900000  * -38.57600000  *
   866       O         56.73300000  *  147.55200000  * -38.41700000  *
   867       C         52.15000000  *  148.27900000  * -39.96300000  *
   868       O         51.20300000  *  148.18000000  * -39.18700000  *
   869       N         52.18300000  *  149.16200000  * -40.95500000  *
   870       H         53.01600000  *  149.23700000  * -41.51800000  *
   871       C         51.08600000  *  150.10000000  * -41.17300000  *
   872       H         50.93100000  *  150.67400000  * -40.25800000  *
   873       C         51.42800000  *  151.06800000  * -42.31500000  *
   874       H         51.45500000  *  150.53900000  * -43.26600000  *
   875       H         50.66000000  *  151.83800000  * -42.36800000  *
   876       H         52.39300000  *  151.53600000  * -42.12800000  *
   877       C         49.78900000  *  149.37000000  * -41.49900000  *
   878       O         48.71100000  *  149.83600000  * -41.15600000  *
   879       N         49.90500000  *  148.22900000  * -42.16400000  *
   880       H         50.83800000  *  147.88500000  * -42.38200000  *
   881       C         48.74000000  *  147.45400000  * -42.57500000  *
   882       H         47.85700000  *  148.08600000  * -42.62800000  *
   883       H         48.90600000  *  147.02300000  * -43.58600000  *
   884       H         48.52600000  *  146.61900000  * -41.88800000  *
   885       H         72.54500000  *  137.05800000  * -55.15200000  *
   886       C         72.38600000  *  137.90500000  * -54.47400000  *
   887       O         73.28300000  *  138.71900000  * -54.28600000  *
   888       N         71.20100000  *  138.01500000  * -53.89800000  *
   889       H         70.47300000  *  137.31400000  * -54.05700000  *
   890       C         70.96800000  *  139.10000000  * -52.94900000  *
   891       H         71.50000000  *  140.00600000  * -53.22900000  *
   892       C         69.47700000  *  139.40500000  * -52.82500000  *
   893       H         69.09300000  *  139.71900000  * -53.79200000  *
   894       H         68.93000000  *  138.50600000  * -52.53300000  *
   895       C         69.17800000  *  140.45400000  * -51.81200000  *
   896       N         69.23000000  *  140.42300000  * -50.45900000  *
   897       C         68.94700000  *  141.69100000  * -50.01400000  *
   898       H         68.96900000  *  142.01200000  * -48.98400000  *
   899       N         68.72400000  *  142.47200000  * -51.05500000  *
   900       H         68.47200000  *  143.44500000  * -51.00700000  *
   901       C         68.85400000  *  141.75000000  * -52.15500000  *
   902       H         68.77100000  *  142.12600000  * -53.16500000  *
   903       C         71.52100000  *  138.65700000  * -51.58300000  *
   904       O         72.28000000  *  139.38000000  * -50.94700000  *
   905       N         71.11400000  *  137.47100000  * -51.14500000  *
   906       H         70.37100000  *  137.01600000  * -51.66500000  *
   907       C         71.55500000  *  136.88000000  * -49.87700000  *
   908       H         71.18200000  *  135.84900000  * -49.87900000  *
   909       C         73.07600000  *  136.85300000  * -49.83700000  *
   910       H         73.53100000  *  137.83300000  * -49.86900000  *
   911       H         73.36600000  *  136.47900000  * -48.85100000  *
   912       C         73.64700000  *  135.85900000  * -50.81700000  *
   913       H         73.29800000  *  134.87100000  * -50.67200000  *
   914       H         73.21600000  *  136.10500000  * -51.78700000  *
   915       C         75.11700000  *  136.08400000  * -50.99900000  *
   916       H         75.61200000  *  135.95400000  * -50.03300000  *
   917       H         75.49500000  *  135.33200000  * -51.69500000  *
   918       N         75.35800000  *  137.42700000  * -51.50600000  *
   919       H         74.62100000  *  138.12700000  * -51.38200000  *
   920       C         76.54800000  *  137.85900000  * -51.89000000  *
   921       N         77.59300000  *  137.04400000  * -51.81500000  *
   922       H         77.44700000  *  136.21200000  * -51.26800000  *
   923       H         78.49900000  *  137.44300000  * -51.92100000  *
   924       N         76.69000000  *  139.09300000  * -52.35600000  *
   925       H         75.86000000  *  139.69200000  * -52.33800000  *
   926       H         77.56200000  *  139.47800000  * -52.67100000  *
   927       C         71.03700000  *  137.42400000  * -48.54200000  *
   928       O         71.18700000  *  136.76800000  * -47.50900000  *
   929       N         70.43700000  *  138.60400000  * -48.51600000  *
   930       H         70.32800000  *  139.16900000  * -49.34700000  *
   931       C         69.93700000  *  139.07600000  * -47.23100000  *
   932       H         69.76500000  *  138.24900000  * -46.54100000  *
   933       C         70.93500000  *  140.04200000  * -46.56200000  *
   934       H         71.90900000  *  139.56600000  * -46.50900000  *
   935       H         71.04400000  *  140.94300000  * -47.17900000  *
   936       C         70.51300000  *  140.42800000  * -45.14700000  *
   937       O         70.17200000  *  139.51500000  * -44.35500000  *
   938       O         70.51000000  *  141.64400000  * -44.82500000  *
   939       C         68.58700000  *  139.73400000  * -47.37800000  *
   940       O         68.35000000  *  140.81000000  * -46.83500000  *
   941       N         67.68700000  *  139.08300000  * -48.11000000  *
   942       H         67.94300000  *  138.20800000  * -48.54500000  *
   943       C         66.35900000  *  139.64900000  * -48.29900000  *
   944       H         66.47700000  *  140.66700000  * -48.65900000  *
   945       C         65.54600000  *  138.81300000  * -49.28800000  *
   946       H         65.58300000  *  137.78400000  * -48.94500000  *
   947       H         64.50600000  *  139.14000000  * -49.25500000  *
   948       C         66.02700000  *  138.85500000  * -50.73600000  *
   949       H         67.06400000  *  138.52800000  * -50.78200000  *
   950       C         65.17300000  *  137.91700000  * -51.58300000  *
   951       H         64.15900000  *  138.30500000  * -51.68800000  *
   952       H         65.63400000  *  137.80700000  * -52.55000000  *
   953       H         65.13400000  *  136.93500000  * -51.11000000  *
   954       C         65.92100000  *  140.27700000  * -51.26400000  *
   955       H         66.42000000  *  140.99600000  * -50.63300000  *
   956       H         66.44200000  *  140.27500000  * -52.20900000  *
   957       H         64.88200000  *  140.56100000  * -51.39700000  *
   958       C         65.59400000  *  139.73400000  * -46.98200000  *
   959       O         65.58600000  *  138.79200000  * -46.16600000  *
   960       N         64.96000000  *  140.85800000  * -46.74100000  *
   961       H         64.97000000  *  141.59000000  * -47.43800000  *
   962       C         64.17600000  *  141.06900000  * -45.53800000  *
   963       H         63.56700000  *  140.17700000  * -45.39200000  *
   964       C         65.06000000  *  141.24200000  * -44.28300000  *
   965       H         64.42700000  *  141.30100000  * -43.39700000  *
   966       H         65.66500000  *  140.34300000  * -44.16700000  *
   967       C         65.98900000  *  142.46400000  * -44.29100000  *
   968       H         66.39200000  *  142.61000000  * -45.29000000  *
   969       H         65.42800000  *  143.35100000  * -43.99700000  *
   970       C         67.15300000  *  142.22200000  * -43.32200000  *
   971       H         66.76400000  *  141.95600000  * -42.33700000  *
   972       H         67.73700000  *  141.38100000  * -43.70500000  *
   973       C         68.05400000  *  143.45400000  * -43.19100000  *
   974       H         68.13800000  *  143.94000000  * -44.16800000  *
   975       H         67.57700000  *  144.16600000  * -42.50700000  *
   976       N         69.40300000  *  143.07000000  * -42.69600000  *
   977       H         69.87900000  *  142.47200000  * -43.38500000  *
   978       H         69.97400000  *  143.88700000  * -42.51900000  *
   979       H         69.33200000  *  142.55600000  * -41.82800000  *
   980       C         63.27000000  *  142.23300000  * -45.83200000  *
   981       O         63.63000000  *  143.07800000  * -46.65100000  *
   982       N         62.11200000  *  142.30300000  * -45.18600000  *
   983       C         61.62600000  *  141.34600000  * -44.17100000  *
   984       H         62.10000000  *  141.53200000  * -43.20900000  *
   985       H         61.74500000  *  140.31100000  * -44.47600000  *
   986       C         60.16400000  *  141.66900000  * -44.09500000  *
   987       H         59.73700000  *  141.34900000  * -43.14300000  *
   988       H         59.63700000  *  141.20600000  * -44.93200000  *
   989       C         60.16000000  *  143.18900000  * -44.24800000  *
   990       H         60.51600000  *  143.64900000  * -43.32100000  *
   991       H         59.20200000  *  143.56500000  * -44.57400000  *
   992       C         61.14500000  *  143.38000000  * -45.40300000  *
   993       H         60.63400000  *  143.20500000  * -46.34500000  *
   994       C         61.77100000  *  144.77100000  * -45.44800000  *
   995       O         61.39200000  *  145.58400000  * -46.27300000  *
   996       N         62.72700000  *  145.09400000  * -44.55900000  *
   997       H         62.97500000  *  144.41100000  * -43.85900000  *
   998       C         63.43200000  *  146.40000000  * -44.54300000  *
   999       H         62.69000000  *  147.19700000  * -44.46700000  *
  1000       C         64.37200000  *  146.49400000  * -43.32900000  *
  1001       H         65.06500000  *  145.65300000  * -43.34400000  *
  1002       H         64.95900000  *  147.41000000  * -43.42000000  *
  1003       C         63.65100000  *  146.54400000  * -41.97600000  *
  1004       H         62.93500000  *  147.36600000  * -41.98900000  *
  1005       H         63.11300000  *  145.61200000  * -41.81700000  *
  1006       C         64.63200000  *  146.73900000  * -40.81800000  *
  1007       O         65.64900000  *  146.06700000  * -40.70900000  *
  1008       N         64.36900000  *  147.64900000  * -39.90600000  *
  1009       H         65.02600000  *  147.76700000  * -39.14800000  *
  1010       H         63.55900000  *  148.24400000  * -39.98300000  *
  1011       C         64.27600000  *  146.68600000  * -45.80300000  *
  1012       O         64.48600000  *  147.84300000  * -46.16000000  *
  1013       N         64.75800000  *  145.63800000  * -46.47600000  *
  1014       H         64.46200000  *  144.71900000  * -46.18000000  *
  1015       C         65.53700000  *  145.70100000  * -47.71400000  *
  1016       H         66.10300000  *  146.63500000  * -47.74300000  *
  1017       C         66.54400000  *  144.52100000  * -47.74600000  *
  1018       H         66.03600000  *  143.59600000  * -47.48900000  *
  1019       H         66.92300000  *  144.40200000  * -48.75900000  *
  1020       C         67.76900000  *  144.69200000  * -46.85700000  *
  1021       O         68.07900000  *  145.76500000  * -46.36600000  *
  1022       N         68.52400000  *  143.64200000  * -46.61800000  *
  1023       H         69.38600000  *  143.77400000  * -46.11500000  *
  1024       H         68.27000000  *  142.69800000  * -46.89600000  *
  1025       C         64.63400000  *  145.71600000  * -48.96600000  *
  1026       O         65.15800000  *  145.63400000  * -50.07500000  *
  1027       N         63.30000000  *  145.80300000  * -48.83400000  *
  1028       H         62.89500000  *  145.87300000  * -47.90900000  *
  1029       C         62.40600000  *  145.84500000  * -49.97900000  *
  1030       H         62.94700000  *  145.74800000  * -50.91900000  *
  1031       C         61.36900000  *  144.72100000  * -49.88900000  *
  1032       H         60.76900000  *  144.86100000  * -48.99200000  *
  1033       H         60.74400000  *  144.79800000  * -50.77200000  *
  1034       C         62.03600000  *  143.32400000  * -49.85900000  *
  1035       H         62.67100000  *  143.24000000  * -48.98800000  *
  1036       C         61.00200000  *  142.26000000  * -49.77100000  *
  1037       H         60.24600000  *  142.42800000  * -50.53400000  *
  1038       H         61.44700000  *  141.27100000  * -49.89000000  *
  1039       H         60.52000000  *  142.31900000  * -48.79800000  *
  1040       C         62.89500000  *  143.12600000  * -51.08400000  *
  1041       H         63.82900000  *  143.66800000  * -50.95600000  *
  1042       H         63.12900000  *  142.06900000  * -51.20900000  *
  1043       H         62.39300000  *  143.49200000  * -51.96600000  *
  1044       C         61.76300000  *  147.21800000  * -49.95200000  *
  1045       O         61.15000000  *  147.60200000  * -48.96600000  *
  1046       N         61.89000000  *  147.98500000  * -51.02800000  *
  1047       H         62.38300000  *  147.61600000  * -51.83600000  *
  1048       C         61.44300000  *  149.37700000  * -51.05600000  *
  1049       H         61.05000000  *  149.66900000  * -50.08500000  *
  1050       C         62.61600000  *  150.29800000  * -51.36900000  *
  1051       H         62.95200000  *  150.10700000  * -52.38900000  *
  1052       H         62.24900000  *  151.32000000  * -51.30300000  *
  1053       C         63.80900000  *  150.13800000  * -50.41800000  *
  1054       H         64.23500000  *  149.14200000  * -50.52300000  *
  1055       C         64.85100000  *  151.16200000  * -50.81900000  *
  1056       H         64.49200000  *  152.15600000  * -50.56100000  *
  1057       H         65.77600000  *  150.94500000  * -50.29200000  *
  1058       H         65.03500000  *  151.13300000  * -51.88500000  *
  1059       C         63.46300000  *  150.37400000  * -48.95100000  *
  1060       H         62.84000000  *  149.56200000  * -48.59000000  *
  1061       H         64.37300000  *  150.39200000  * -48.35400000  *
  1062       H         62.93500000  *  151.31900000  * -48.83200000  *
  1063       C         60.32400000  *  149.56400000  * -52.06300000  *
  1064       O         60.42300000  *  149.10400000  * -53.18800000  *
  1065       N         59.26800000  *  150.25600000  * -51.67700000  *
  1066       H         59.36500000  *  150.76300000  * -50.80000000  *
  1067       C         58.08300000  *  150.44700000  * -52.50800000  *
  1068       H         58.17300000  *  149.92400000  * -53.45700000  *
  1069       C         56.81900000  *  149.90600000  * -51.78600000  *
  1070       H         55.94300000  *  150.08700000  * -52.41500000  *
  1071       C         56.95000000  *  148.40400000  * -51.54300000  *
  1072       H         57.75300000  *  148.18300000  * -50.83300000  *
  1073       H         56.01300000  *  148.00400000  * -51.15200000  *
  1074       H         57.15800000  *  147.91500000  * -52.48900000  *
  1075       C         56.64700000  *  150.60600000  * -50.43300000  *
  1076       H         57.48200000  *  150.38000000  * -49.77500000  *
  1077       H         56.60500000  *  151.68300000  * -50.57600000  *
  1078       C         55.37000000  *  150.22200000  * -49.68600000  *
  1079       H         55.48900000  *  149.24800000  * -49.22200000  *
  1080       H         55.17000000  *  150.96500000  * -48.91000000  *
  1081       H         54.52900000  *  150.16800000  * -50.38500000  *
  1082       C         57.87200000  *  151.93000000  * -52.81700000  *
  1083       O         58.38200000  *  152.79400000  * -52.10000000  *
  1084       N         57.14900000  *  152.22000000  * -53.89700000  *
  1085       H         56.70500000  *  151.48200000  * -54.43300000  *
  1086       C         56.84100000  *  153.60200000  * -54.22700000  *
  1087       H         57.16800000  *  154.27800000  * -53.43100000  *
  1088       C         57.50400000  *  154.05300000  * -55.54100000  *
  1089       H         57.21800000  *  155.07000000  * -55.80500000  *
  1090       H         58.58200000  *  154.04400000  * -55.38800000  *
  1091       C         57.19300000  *  153.14600000  * -56.70100000  *
  1092       O         56.13500000  *  152.53500000  * -56.76400000  *
  1093       N         58.11500000  *  153.07200000  * -57.64100000  *
  1094       H         57.83300000  *  152.61700000  * -58.48600000  *
  1095       H         58.88600000  *  153.71500000  * -57.62100000  *
  1096       C         55.33100000  *  153.75800000  * -54.32100000  *
  1097       O         54.57600000  *  152.79900000  * -54.11400000  *
  1098       N         54.88500000  *  154.97100000  * -54.62100000  *
  1099       H         55.52100000  *  155.73600000  * -54.79200000  *
  1100       C         53.46400000  *  155.24700000  * -54.72300000  *
  1101       H         52.92700000  *  154.82600000  * -53.87200000  *
  1102       C         53.20900000  *  156.78000000  * -54.75500000  *
  1103       H         52.16900000  *  156.98000000  * -55.02600000  *
  1104       C         53.47800000  *  157.39700000  * -53.41000000  *
  1105       H         54.52100000  *  157.25500000  * -53.13000000  *
[...]
 1005  H   0.83024
 1006  C   1.06488   0.79418   0.73842   0.79745
 1007  O   1.87748   1.40716   1.59294   1.81789
 1008  N   1.52680   1.35242   1.39133   1.32767
 1009  H   0.65688
 1010  H   0.66334
 1011  C   1.08387   0.75666   0.78142   0.81492
 1012  O   1.88483   1.66396   1.31025   1.73336
 1013  N   1.55162   1.50561   1.20262   1.30330
 1014  H   0.66571
 1015  C   1.07296   0.94686   1.09317   0.82112
 1016  H   0.80377
 1017  C   1.07034   1.04977   1.09111   1.16270
 1018  H   0.83022
 1019  H   0.79598
 1020  C   1.05915   0.80556   0.76613   0.75921
 1021  O   1.87628   1.76865   1.40742   1.61385
 1022  N   1.53154   1.31516   1.19766   1.57984
 1023  H   0.66779
 1024  H   0.65355
 1025  C   1.08767   0.78519   0.72018   0.85285
 1026  O   1.87869   1.76660   1.61013   1.38017
 1027  N   1.54126   1.12563   1.66502   1.18377
 1028  H   0.65412
 1029  C   1.06992   0.96886   0.98007   0.97428
 1030  H   0.81102
 1031  C   1.06727   1.06420   0.99765   1.17264
 1032  H   0.83739
 1033  H   0.84800
 1034  C   1.04101   1.01199   0.94627   1.06217
 1035  H   0.85589
 1036  C   1.04921   1.12578   1.11842   1.17078
 1037  H   0.84484
 1038  H   0.84888
 1039  H   0.86561
 1040  C   1.05154   1.14127   1.17181   1.09911
 1041  H   0.84516
 1042  H   0.85755
 1043  H   0.84969
 1044  C   1.07654   0.74987   0.84316   0.75531
 1045  O   1.87180   1.53849   1.79744   1.44611
 1046  N   1.54595   1.55562   1.17181   1.24733
 1047  H   0.64532
 1048  C   1.06484   0.99013   0.82531   1.09948
 1049  H   0.81461
 1050  C   1.06473   1.02285   1.10504   1.12654
 1051  H   0.84678
 1052  H   0.83909
 1053  C   1.04801   0.96735   1.07284   0.96787
 1054  H   0.86632
 1055  C   1.05393   1.12340   1.13101   1.16588
 1056  H   0.84521
 1057  H   0.84917
 1058  H   0.85970
 1059  C   1.05438   1.17610   1.17715   1.04692
 1060  H   0.84038
 1061  H   0.85213
 1062  H   0.84721
 1063  C   1.07575   0.79767   0.74328   0.81718
 1064  O   1.86883   1.83039   1.62503   1.34263
 1065  N   1.54215   1.18999   1.47108   1.29619
 1066  H   0.64358
 1067  C   1.07588   0.88913   1.00564   1.04174
 1068  H   0.81019
 1069  C   1.06438   1.01600   0.99306   1.01963
 1070  H   0.85009
 1071  C   1.05462   1.18104   1.03404   1.17664
 1072  H   0.84350
 1073  H   0.84514
 1074  H   0.85321
 1075  C   1.05394   1.06888   1.11974   1.03163
 1076  H   0.84680
 1077  H   0.86133
 1078  C   1.05260   1.08979   1.15778   1.13219
 1079  H   0.84827
 1080  H   0.87723
 1081  H   0.84664
 1082  C   1.08646   0.74156   0.88792   0.74176
 1083  O   1.88664   1.56947   1.57728   1.55769
 1084  N   1.54298   1.50710   1.14376   1.33775
 1085  H   0.64334
 1086  C   1.06227   0.97225   0.88445   1.03698
 1087  H   0.80598
 1088  C   1.07260   1.18080   1.12856   1.02375
 1089  H   0.80897
 1090  H   0.80406
 1091  C   1.06079   0.76194   0.77080   0.82359
 1092  O   1.88012   1.35578   1.56913   1.83576
 1093  N   1.53406   1.29743   1.49466   1.27193
 1094  H   0.67185
 1095  H   0.66470
 1096  C   1.08309   0.88515   0.75974   0.71396
 1097  O   1.88786   1.65372   1.46799   1.58785
 1098  N   1.54017   1.14543   1.19745   1.67216
 1099  H   0.66343
 1100  C   1.08560   0.83687   1.05854   1.08300
 1101  H   0.80368
 1102  C   1.08430   0.99193   0.86648   0.88969
 1103  H   0.84646
 1104  C   1.05379   1.18326   1.18057   1.05449
 1105  H   0.84188
 1106  H   0.82400
 1107  H   0.82931
 1108  O   1.84877   1.59249   1.82298   1.34551
 1109  H   0.64218
 1110  C   1.07324   0.78904   0.75548   0.82403
 1111  O   1.87786   1.27988   1.68889   1.84875
 1112  N   1.53328   1.19331   1.53452   1.21095
 1113  H   0.66720
 1114  C   1.05710   1.15385   1.13348   0.89299
 1115  H   0.83544
 1116  H   0.83762
 1117  H   0.83539
 1118  H   0.83957
 1119  C   1.10507   0.75478   0.73539   0.91349
 1120  O   1.88312   1.71068   1.59694   1.48273
 1121  N   1.54486   1.42789   1.34572   1.20810
 1122  H   0.65360
 1123  C   1.08070   0.93121   1.08425   0.93143
 1124  H   0.80954
 1125  C   1.07316   1.07912   0.95390   0.98254
 1126  H   0.84395
 1127  C   1.05810   1.18716   1.08408   1.12934
 1128  H   0.84355
 1129  H   0.84844
 1130  H   0.85201
 1131  C   1.05414   1.07584   1.13448   1.01861
 1132  H   0.85365
 1133  H   0.85470
 1134  C   1.04919   1.14382   1.15103   1.09053
 1135  H   0.84992
 1136  H   0.85977
 1137  H   0.84944
 1138  C   1.07221   0.84163   0.73675   0.77780
 1139  O   1.87774   1.89039   1.52095   1.39094
 1140  N   1.54470   1.10299   1.52622   1.33523
 1141  H   0.63253
 1142  C   1.06989   0.84580   1.05429   1.03759
 1143  H   0.81829
 1144  C   1.06012   1.09248   1.04565   1.09650
 1145  H   0.83553
 1146  H   0.84670
 1147  C   1.05102   1.08528   1.04425   1.07729
 1148  H   0.85074
 1149  H   0.84443
 1150  C   1.05940   1.08210   1.05431   1.09875
 1151  H   0.84106
 1152  H   0.83191
 1153  C   1.07866   1.02177   0.99757   1.07377
 1154  H   0.81241
 1155  H   0.83382
 1156  N   1.46080   1.23191   1.23214   1.25884
 1157  H   0.68922
 1158  H   0.69980
 1159  H   0.68795
 1160  C   1.07839   0.77983   0.75035   0.82547
 1161  O   1.88112   1.77259   1.69306   1.29078
 1162  N   1.54485   1.32882   1.42542   1.23091
 1163  H   0.64041
 1164  C   1.07012   0.91857   0.95762   1.02896
 1165  H   0.83215
 1166  C   1.06276   1.10009   1.01951   1.13293
 1167  H   0.83524
 1168  H   0.84513
 1169  C   1.05373   1.07062   0.96102   0.96335
 1170  H   0.85959
 1171  C   1.06224   1.16612   1.13943   1.09232
 1172  H   0.85199
 1173  H   0.84918
 1174  H   0.85266
 1175  C   1.05740   1.18270   1.13703   1.08886
 1176  H   0.85351
 1177  H   0.84817
 1178  H   0.85435
 1179  C   1.08464   0.79164   0.79947   0.75944
 1180  O   1.88075   1.63418   1.59915   1.53930
 1181  N   1.54337   1.36398   1.43994   1.16004
 1182  H   0.64535
 1183  C   1.06750   0.91047   0.92828   1.05127
 1184  H   0.82732
 1185  C   1.05952   1.16554   1.08448   1.15303
 1186  H   0.82155
 1187  H   0.83379
 1188  H   0.82637
 1189  C   1.08887   0.78538   0.78583   0.74608
 1190  O   1.87164   1.83763   1.36191   1.60147
 1191  N   1.54618   1.17620   1.32407   1.48956
 1192  H   0.67107
 1193  C   1.07475   0.88803   1.07472   0.92880
 1194  H   0.82133
 1195  C   1.07800   1.14847   1.17237   1.01646
 1196  H   0.80675
 1197  H   0.83461
 1198  C   1.07076   0.73283   0.73702   0.69338
 1199  O   1.88679   1.65278   1.47604   1.70970
 1200  O   1.87161   1.81398   1.44660   1.74444
 1201  C   1.08886   0.81808   0.79548   0.74808
 1202  O   1.88702   1.28787   1.79898   1.57737
 1203  N   1.56625   1.29151   1.17041   1.53665
 1204  H   0.68169
 1205  C   1.07998   1.02205   0.91649   0.95335
 1206  H   0.83915
 1207  C   1.05576   1.07821   1.20255   0.96292
 1208  H   0.81435
 1209  H   0.81878
 1210  C   1.07460   0.97365   0.97762   0.97027
 1211  C   1.09003   1.04131   1.04117   1.01408
 1212  H   0.83941
 1213  C   1.08869   0.98522   1.06187   1.01025
 1214  H   0.84207
 1215  C   1.08748   1.05977   0.99153   1.03210
 1216  H   0.84754
 1217  C   1.08947   1.03677   1.03627   0.98874
 1218  H   0.83144
 1219  C   1.08712   0.98679   1.06389   1.02430
 1220  H   0.83927
 1221  C   1.08867   0.80293   0.77368   0.76413
 1222  O   1.88521   1.44424   1.55956   1.71441
 1223  N   1.53927   1.41485   1.43656   1.13563
 1224  H   0.68350
 1225  C   1.06848   0.98859   1.06746   0.98166
 1226  H   0.81286
 1227  H   0.80709
 1228  C   1.07937   0.82841   0.77915   0.70663
 1229  O   1.87675   1.84118   1.32517   1.61332
 1230  N   1.55752   1.29727   1.23273   1.44620
 1231  H   0.67367
 1232  C   1.07735   0.89854   1.03237   0.96667
 1233  H   0.83478
 1234  C   1.06796   1.11191   0.95116   1.17647
 1235  H   0.83578
 1236  H   0.82971
 1237  C   1.05176   1.03333   0.96075   1.00948
 1238  H   0.86340
 1239  C   1.05602   1.16794   1.06750   1.16434
 1240  H   0.85759
 1241  H   0.84490
 1242  H   0.85566
 1243  C   1.05568   1.17082   1.18866   1.04761
 1244  H   0.84144
 1245  H   0.84272
 1246  H   0.85740
 1247  C   1.09495   0.85708   0.76466   0.72404
 1248  O   1.88110   1.32541   1.78538   1.59468
 1249  N   1.58229   1.28167   1.23416   1.52167
 1250  H   0.66075
 1251  C   1.06828   0.96379   0.99691   0.95521
 1252  H   0.83623
 1253  C   1.05864   1.14010   1.09762   1.17427
 1254  H   0.84410
 1255  H   0.81072
 1256  H   0.81026
 1257  C   1.07602   0.83423   0.75171   0.78120
 1258  O   1.88387   1.49994   1.60009   1.64960
 1259  N   1.54296   1.31117   1.51247   1.14425
 1260  H   0.67603
 1261  C   1.06247   0.92444   1.14574   1.10581
 1262  H   0.82652
 1263  H   0.82983
 1264  H   0.83904
 1265  H   0.84185
 1266  C   1.10455   0.72509   0.79421   0.87712
 1267  O   1.88383   1.53331   1.36201   1.88326
 1268  N   1.54272   1.48703   1.35106   1.14839
 1269  H   0.67726
 1270  C   1.07285   1.11771   0.96743   0.82206
 1271  H   0.80333
 1272  C   1.05792   1.09158   1.02708   1.14973
 1273  H   0.83447
 1274  H   0.82231
 1275  C   1.06421   0.97659   0.94910   0.96720
 1276  C   1.08253   1.02020   0.99388   1.05813
 1277  H   0.84062
 1278  C   1.08201   1.04726   1.02765   0.99876
 1279  H   0.84607
 1280  C   1.08096   1.00797   1.05598   1.02630
 1281  H   0.85065
 1282  C   1.08041   1.02441   1.00340   1.05488
 1283  H   0.85526
 1284  C   1.08310   1.05794   1.02553   0.99535
 1285  H   0.83994
 1286  C   1.08063   0.76587   0.78593   0.79870
 1287  O   1.88386   1.53923   1.68036   1.53379
 1288  N   1.53689   1.17709   1.34785   1.43198
 1289  H   0.67109
 1290  C   1.05818   1.14191   0.97751   0.99759
 1291  H   0.81364
 1292  H   0.78674
 1293  C   1.07321   0.78169   0.75111   0.80211
 1294  O   1.87179   1.55660   1.40039   1.83994
 1295  N   1.53459   1.40616   1.37143   1.17569
 1296  H   0.64802
 1297  C   1.07485   1.00362   1.20102   0.87840
 1298  H   0.80917
 1299  H   0.79321
 1300  C   1.08118   0.77438   0.74565   0.80726
 1301  O   1.88287   1.52183   1.53276   1.73151
 1302  N   1.56527   1.44468   1.16705   1.26722
 1303  C   1.07054   1.06968   0.86732   1.05592
 1304  H   0.83621
 1305  H   0.83886
 1306  C   1.05732   1.04579   1.13970   1.05914
 1307  H   0.84676
 1308  H   0.80368
 1309  C   1.06103   1.08272   0.98321   1.17211
 1310  H   0.83523
 1311  H   0.81960
 1312  C   1.07346   1.05223   1.00126   0.86775
 1313  H   0.81340
 1314  C   1.08828   0.76353   0.76816   0.82865
 1315  O   1.88393   1.42715   1.43542   1.88339
 1316  N   1.54313   1.40348   1.48390   1.11757
 1317  H   0.64361
 1318  C   1.08220   1.04964   1.11423   0.89122
 1319  H   0.80079
 1320  H   0.78745
 1321  C   1.08831   0.82549   0.73019   0.77831
 1322  O   1.88491   1.70328   1.72958   1.32957
 1323  N   1.55110   1.23218   1.41122   1.34487
 1324  H   0.68812
 1325  C   1.07569   0.86034   1.06409   0.97842
 1326  H   0.82193
 1327  C   1.05962   1.16890   1.07546   0.97643
 1328  H   0.83476
 1329  H   0.83905
 1330  C   1.05817   1.13856   1.07487   1.02379
 1331  H   0.82459
 1332  H   0.87159
 1333  C   1.06376   1.08740   1.09995   0.78144
 1334  H   0.85046
 1335  H   0.81930
 1336  N   1.53282   1.62702   1.28989   1.09339
 1337  H   0.64880
 1338  C   0.97600   0.83628   0.80287   0.79449
 1339  N   1.50147   1.56332   1.25849   1.24812
 1340  H   0.67465
 1341  H   0.62639
 1342  N   1.50407   1.55699   1.35354   1.14120
 1343  H   0.64456
 1344  H   0.63723
 1345  C   1.08278   0.75716   0.77357   0.84404
 1346  O   1.88771   1.48017   1.64665   1.56770
 1347  N   1.54263   1.54570   1.19732   1.23937
 1348  H   0.67293
 1349  C   1.08979   1.00066   1.01023   0.92107
 1350  H   0.80181
 1351  C   1.08622   0.93203   0.92711   0.87726
 1352  H   0.85109
 1353  C   1.05852   1.09745   1.12852   1.20544
 1354  H   0.82418
 1355  H   0.83339
 1356  H   0.83077
 1357  O   1.84300   1.58275   1.64068   1.56960
 1358  H   0.62646
 1359  C   1.07905   0.81333   0.79141   0.76305
 1360  O   1.88746   1.53690   1.79110   1.36956
 1361  N   1.55260   1.32713   1.29597   1.37685
 1362  H   0.65279
 1363  C   1.07405   0.98873   0.92723   0.99333
 1364  H   0.81731
 1365  C   1.05791   1.09553   1.06849   1.08744
 1366  H   0.84087
 1367  H   0.82579
 1368  C   1.06129   0.97219   0.97498   1.05830
 1369  C   1.08271   0.97271   1.07829   0.99026
 1370  H   0.84503
 1371  C   1.08050   1.07785   0.99583   1.02375
 1372  H   0.81393
 1373  C   1.06651   0.82750   0.89512   0.90964
 1374  O   1.84133   1.46797   1.54001   1.69600
 1375  H   0.63477
 1376  C   1.07377   0.99044   1.09271   1.07119
 1377  H   0.84711
 1378  C   1.08190   1.06410   0.99872   0.99340
 1379  H   0.85883
 1380  C   1.08210   0.77638   0.73413   0.82118
 1381  O   1.88477   1.39043   1.55594   1.82931
 1382  N   1.55035   1.20048   1.60182   1.14814
 1383  H   0.66118
 1384  C   1.08717   1.11710   1.03452   0.83747
 1385  H   0.82131
 1386  C   1.08253   0.83210   0.89081   1.00028
 1387  H   0.86865
 1388  C   1.05718   1.09866   1.14108   1.18951
 1389  H   0.83078
 1390  H   0.84587
 1391  H   0.84154
 1392  O   1.84699   1.32397   1.76636   1.66687
 1393  H   0.61649
 1394  C   1.08206   0.82829   0.76381   0.79222
 1395  O   1.88735   1.29181   1.70618   1.67728
 1396  N   1.54293   1.22802   1.27095   1.47580
 1397  H   0.64942
 1398  C   1.07063   0.98416   1.04045   1.07622
 1399  H   0.84401
 1400  H   0.80886
 1401  C   1.07028   0.85074   0.72024   0.75161
 1402  O   1.88499   1.70084   1.45752   1.55934
 1403  N   1.55352   1.14761   1.51366   1.33243
 1404  H   0.68022
 1405  C   1.07075   0.82914   0.98760   1.12948
 1406  H   0.81419
 1407  C   1.05317   1.16409   0.98865   1.05098
 1408  H   0.84023
 1409  H   0.83501
 1410  C   1.05982   1.20527   1.01230   1.13860
 1411  H   0.84384
 1412  H   0.82621
 1413  C   1.06662   0.72269   0.72046   0.72907
 1414  O   1.88752   1.47026   1.82229   1.63765
 1415  O   1.88489   1.51966   1.58579   1.81496
 1416  C   1.08684   0.77106   0.86265   0.75456
 1417  O   1.88731   1.64850   1.65314   1.40983
 1418  N   1.54581   1.31029   1.19185   1.47837
 1419  H   0.65307
 1420  C   1.07215   1.06277   0.88130   1.00772
 1421  H   0.84391
 1422  C   1.05448   1.01861   1.03216   0.97073
 1423  H   0.83592
 1424  C   1.05593   1.17745   1.04892   1.19330
 1425  H   0.84555
 1426  H   0.83585
 1427  H   0.83785
 1428  C   1.05458   1.18133   1.16769   1.06163
 1429  H   0.84060
 1430  H   0.83987
 1431  H   0.85215
 1432  C   1.07562   0.77101   0.73162   0.84200
 1433  O   1.88365   1.36351   1.63745   1.76946
 1434  N   1.53830   1.27322   1.47278   1.21109
 1435  H   0.66906
 1436  C   1.07704   1.00712   1.05466   0.86791
 1437  H   0.82273
 1438  C   1.06064   1.02671   1.01600   0.97672
 1439  H   0.84069
 1440  C   1.05419   1.18418   1.09828   1.12134
 1441  H   0.84085
 1442  H   0.84092
 1443  H   0.85075
 1444  C   1.05739   1.18959   1.16694   1.05262
 1445  H   0.84590
 1446  H   0.83578
 1447  H   0.83878
 1448  C   1.08146   0.80656   0.78640   0.75135
 1449  O   1.88316   1.81151   1.47329   1.46052
 1450  N   1.53604   1.23673   1.43122   1.31665
 1451  H   0.66417
 1452  C   1.07955   0.90450   0.96839   1.14817
 1453  H   0.80528
 1454  C   1.07974   0.93505   0.82439   0.98322
 1455  H   0.86620
 1456  C   1.05747   1.09526   1.13598   1.19618
 1457  H   0.82492
 1458  H   0.82206
 1459  H   0.84136
 1460  O   1.84755   1.47796   1.49398   1.78194
 1461  H   0.64853
 1462  C   1.07074   0.75400   0.82643   0.79818
 1463  O   1.88061   1.50666   1.88245   1.36382
 1464  N   1.53717   1.55065   1.12175   1.29444
 1465  H   0.65727
 1466  C   1.05405   1.16772   0.87318   1.13563
 1467  H   0.83027
 1468  H   0.83715
 1469  H   0.85138
 1470  H   0.82719
 1471  C   1.10850   0.72192   0.77562   0.90302
 1472  O   1.87917   1.50031   1.39726   1.89104
 1473  N   1.54807   1.50769   1.35868   1.13681
 1474  H   0.67055
 1475  C   1.07819   1.08313   1.04086   0.80206
 1476  H   0.80370
 1477  C   1.05902   1.13426   0.99956   1.10165
 1478  H   0.81857
 1479  H   0.82223
 1480  C   1.06594   0.97587   0.99307   1.00559
 1481  C   1.08233   0.99077   1.02468   1.00446
 1482  H   0.83772
 1483  C   1.07635   1.10511   1.04990   1.06630
 1484  H   0.82037
 1485  C   1.07255   0.88647   0.88189   0.87958
 1486  O   1.83869   1.35503   1.61292   1.73272
 1487  H   0.61910
 1488  C   1.07842   0.98852   1.10011   1.09721
 1489  H   0.82119
 1490  C   1.08816   1.07862   0.97870   0.96882
 1491  H   0.83505
 1492  C   1.08087   0.79998   0.76891   0.79199
 1493  O   1.88630   1.81384   1.69956   1.28040
 1494  N   1.53470   1.25580   1.50887   1.18462
 1495  H   0.67088
 1496  C   1.06143   0.92037   1.08959   1.16683
 1497  H   0.83439
 1498  H   0.82966
 1499  H   0.83849
 1500  H   0.82491
 1501  C   1.10803   0.78633   0.88374   0.71617
 1502  O   1.88011   1.43048   1.87065   1.50911
 1503  N   1.55069   1.37512   1.18537   1.44523
 1504  H   0.64443
 1505  C   1.07867   0.96570   0.86322   1.12906
 1506  H   0.81490
 1507  C   1.05976   0.97998   0.99672   1.07642
 1508  H   0.84645
 1509  C   1.05206   1.15819   1.06259   1.17611
 1510  H   0.84440
 1511  H   0.84461
 1512  H   0.84176
 1513  C   1.04783   0.99983   1.12969   1.08499
 1514  H   0.86667
 1515  H   0.85361
 1516  C   1.04903   1.11611   1.12960   1.14931
 1517  H   0.85863
 1518  H   0.85743
 1519  H   0.84126
 1520  C   1.07242   0.85960   0.73796   0.75023
 1521  O   1.87627   1.57600   1.55600   1.67378
 1522  N   1.54217   1.18497   1.41744   1.37465
 1523  H   0.66205
 1524  C   1.07134   0.87895   1.16328   1.10827
 1525  H   0.84314
 1526  H   0.83230
 1527  H   0.83417
 1528  H   0.82768
 1529  C   1.10759   0.84805   0.73307   0.82098
 1530  O   1.88535   1.81628   1.62612   1.36649
 1531  N   1.53784   1.25352   1.40321   1.30544
 1532  H   0.64781
 1533  C   1.05910   0.89168   1.04070   1.02419
 1534  H   0.81955
 1535  C   1.06066   1.03217   1.11449   1.11490
 1536  H   0.82476
 1537  H   0.84724
 1538  C   1.04448   0.99034   0.96343   1.05957
 1539  H   0.88054
 1540  C   1.05456   1.16312   1.06801   1.18081
 1541  H   0.83797
 1542  H   0.84780
 1543  H   0.85390
 1544  C   1.05256   1.12351   1.17218   1.10872
 1545  H   0.85759
 1546  H   0.84734
 1547  H   0.84102
 1548  C   1.07860   0.72953   0.86469   0.77482
 1549  O   1.88187   1.57564   1.45128   1.73530
 1550  N   1.54002   1.57272   1.21250   1.19378
 1551  H   0.66155
 1552  C   1.07184   1.01985   0.93483   0.96157
 1553  H   0.81164
 1554  C   1.05666   1.17073   1.07934   0.99182
 1555  H   0.82420
 1556  H   0.82621
 1557  C   1.05681   1.13003   1.08802   1.03634
 1558  H   0.85316
 1559  H   0.82413
 1560  C   1.06363   1.15819   0.94485   0.90196
 1561  H   0.81631
 1562  H   0.83551
 1563  N   1.52416   1.16146   1.42475   1.39818
 1564  H   0.63977
 1565  C   0.99143   0.79129   0.81235   0.81837
 1566  N   1.51719   1.11633   1.46806   1.48665
 1567  H   0.65570
 1568  H   0.63931
 1569  N   1.50868   1.25121   1.39993   1.41140
 1570  H   0.64203
 1571  H   0.64048
 1572  C   1.08178   0.87181   0.77135   0.74456
 1573  O   1.88736   1.60861   1.59987   1.52896
 1574  N   1.53975   1.17469   1.27131   1.51529
 1575  H   0.65707
 1576  C   1.07436   0.85661   1.08631   1.03895
 1577  H   0.82181
 1578  C   1.06137   1.16417   1.09824   0.98384
 1579  H   0.84196
 1580  H   0.83863
 1581  C   1.04768   1.08177   0.96055   0.94825
 1582  H   0.86914
 1583  C   1.05598   1.17111   1.16303   1.07746
 1584  H   0.85502
 1585  H   0.86146
 1586  H   0.84634
 1587  C   1.05683   1.15841   1.09194   1.15814
 1588  H   0.85107
 1589  H   0.86100
 1590  H   0.84446
 1591  C   1.08291   0.71488   0.76182   0.70281
 1592  O   1.88400   1.46759   1.86968   1.62348
 1593  O   1.88768   1.54693   1.59353   1.80270

 **********************
 *                    *
 * JOB ENDED NORMALLY *
 *                    *
 **********************



 TOTAL JOB TIME:          2763.00 SECONDS

 == MOPAC DONE ==
