 *******************************************************************************
 **                                                                           **
 **                              MOPAC v23.2.2                                **
 **                                                                           **
 *******************************************************************************
 **          Digital Object Identifier (DOI): 10.5281/zenodo.6511958          **
 **    Visit the DOI location for information on how to cite this program.    **
 *******************************************************************************

                              PM7 CALCULATION RESULTS

 *******************************************************************************
 *  CALCULATION DONE: (MAX THREADS = 24)             Thu Jan 22 17:59:00 2026  *
 *  PM7        - The PM7 Hamiltonian to be used
 *
 *
 *
 *                 CHARGE ON SYSTEM = +2
 *
 *
 *
 *  EPS=78.4   - USE ANDREAS KLAMT'S COSMO IMPLICIT SOLVATION MODEL
 *  XYZ        - CARTESIAN COORDINATE SYSTEM TO BE USED
 *  1SCF       - DO 1 SCF AND THEN STOP 
 *  T=         - A TIME OF 172800.0 SECONDS REQUESTED
 *  DUMP=N     - RESTART FILE WRITTEN EVERY 7200.0 SECONDS REQUESTED
 *******************************************************************************
PM7 1SCF XYZ CHARGE=2 EPS=78.4


   ATOM   CHEMICAL          X               Y               Z
  NUMBER   SYMBOL      (ANGSTROMS)     (ANGSTROMS)     (ANGSTROMS)

     1       H         71.69100000  *  165.23700000  * -45.36000000  *
     2       C         70.72700000  *  165.64400000  * -45.02500000  *
     3       O         70.67100000  *  166.69300000  * -44.40000000  *
     4       N         69.64800000  *  164.94600000  * -45.35400000  *
     5       H         69.74300000  *  164.08600000  * -45.86500000  *
     6       C         68.31800000  *  165.37700000  * -44.95100000  *
     7       H         68.30400000  *  166.44500000  * -44.75000000  *
     8       C         67.27900000  *  165.08100000  * -46.05800000  *
     9       H         67.27200000  *  164.02200000  * -46.29800000  *
    10       C         65.89200000  *  165.46600000  * -45.59200000  *
    11       H         65.46400000  *  166.22900000  * -46.24500000  *
    12       H         65.23700000  *  164.60600000  * -45.62700000  *
    13       H         65.87600000  *  165.89500000  * -44.58400000  *
    14       C         67.63700000  *  165.85600000  * -47.31700000  *
    15       H         68.59400000  *  165.52900000  * -47.70800000  *
    16       H         66.87900000  *  165.66900000  * -48.07700000  *
    17       H         67.68800000  *  166.92100000  * -47.10100000  *
    18       C         67.91500000  *  164.66400000  * -43.65700000  *
    19       O         67.55300000  *  165.30600000  * -42.67600000  *
    20       N         67.98400000  *  163.33800000  * -43.65800000  *
    21       H         68.28400000  *  162.85200000  * -44.48600000  *
    22       C         67.62300000  *  162.54400000  * -42.48700000  *
    23       H         67.90600000  *  163.07600000  * -41.58100000  *
    24       C         66.12800000  *  162.23500000  * -42.45900000  *
    25       H         65.92600000  *  161.47400000  * -43.20900000  *
    26       H         65.88500000  *  161.80700000  * -41.48800000  *
    27       C         65.21300000  *  163.39800000  * -42.74000000  *
    28       H         65.33100000  *  164.15700000  * -41.96400000  *
    29       H         65.45900000  *  163.81400000  * -43.69700000  *
    30       C         63.76600000  *  162.97200000  * -42.82400000  *
    31       O         63.44700000  *  162.11400000  * -43.67900000  *
    32       O         62.94800000  *  163.49400000  * -42.03400000  *
    33       C         68.34700000  *  161.22200000  * -42.57700000  *
    34       O         68.73000000  *  160.78800000  * -43.66100000  *
    35       N         68.52400000  *  160.57500000  * -41.43500000  *
    36       H         68.03000000  *  160.89100000  * -40.60600000  *
    37       C         69.17300000  *  159.28200000  * -41.42100000  *
    38       H         69.95100000  *  159.22100000  * -42.17800000  *
    39       C         69.75600000  *  159.01000000  * -40.03200000  *
    40       H         70.21900000  *  159.94300000  * -39.71800000  *
    41       H         68.96300000  *  158.79100000  * -39.31600000  *
    42       C         70.79800000  *  157.89600000  * -39.98300000  *
    43       H         70.31100000  *  156.94100000  * -40.17400000  *
    44       H         71.53800000  *  158.07300000  * -40.76900000  *
    45       C         71.50100000  *  157.83200000  * -38.61800000  *
    46       H         70.74900000  *  157.59000000  * -37.86000000  *
    47       H         72.23100000  *  157.01800000  * -38.63800000  *
    48       C         72.18600000  *  159.16200000  * -38.26900000  *
    49       H         72.83200000  *  159.42500000  * -39.10900000  *
    50       H         71.41200000  *  159.93100000  * -38.15600000  *
    51       N         73.00000000  *  159.10500000  * -37.02500000  *
    52       H         73.70000000  *  158.37000000  * -37.07400000  *
    53       H         73.43800000  *  159.98800000  * -36.79300000  *
    54       H         72.39100000  *  158.85400000  * -36.25100000  *
    55       C         68.06200000  *  158.28700000  * -41.74800000  *
    56       O         67.16300000  *  158.08100000  * -40.94600000  *
    57       N         68.06100000  *  157.73100000  * -42.96200000  *
    58       H         68.85800000  *  157.91400000  * -43.55200000  *
    59       C         67.13200000  *  156.65900000  * -43.36800000  *
    60       H         66.11700000  *  157.05900000  * -43.38500000  *
    61       C         67.47800000  *  156.14300000  * -44.78400000  *
    62       H         68.55700000  *  156.16700000  * -44.90700000  *
    63       C         67.02400000  *  154.69200000  * -45.01900000  *
    64       H         65.96100000  *  154.58500000  * -44.80200000  *
    65       H         67.23000000  *  154.39900000  * -46.04200000  *
    66       H         67.57900000  *  154.00200000  * -44.38300000  *
    67       C         66.86400000  *  157.10600000  * -45.81700000  *
    68       H         65.78100000  *  156.98600000  * -45.83600000  *
    69       H         67.07500000  *  158.12100000  * -45.49400000  *
    70       C         67.42100000  *  156.94100000  * -47.23700000  *
    71       H         67.13800000  *  155.97900000  * -47.65200000  *
    72       H         67.02600000  *  157.72700000  * -47.87900000  *
    73       H         68.50500000  *  157.01200000  * -47.22300000  *
    74       C         67.14300000  *  155.54000000  * -42.32700000  *
    75       O         66.08700000  *  155.07400000  * -41.89400000  *
    76       N         68.34500000  *  155.14300000  * -41.91200000  *
    77       H         69.17000000  *  155.56300000  * -42.32900000  *
    78       C         68.54000000  *  154.20800000  * -40.82300000  *
    79       H         68.56100000  *  154.75600000  * -39.88000000  *
    80       H         67.71200000  *  153.49900000  * -40.79100000  *
    81       C         69.84200000  *  153.43800000  * -40.94700000  *
    82       O         70.87800000  *  153.95400000  * -41.37100000  *
    83       N         69.77700000  *  152.19300000  * -40.50300000  *
    84       H         68.86500000  *  151.83200000  * -40.26000000  *
    85       C         70.91900000  *  151.47600000  * -39.95800000  *
    86       H         71.82400000  *  152.07800000  * -40.05900000  *
    87       C         70.66100000  *  151.25300000  * -38.45900000  *
    88       H         69.83400000  *  150.55400000  * -38.32700000  *
    89       H         71.56600000  *  150.82500000  * -38.05100000  *
    90       C         70.35000000  *  152.54900000  * -37.68300000  *
    91       H         71.15800000  *  153.26400000  * -37.84900000  *
    92       H         69.43300000  *  152.99900000  * -38.07000000  *
    93       C         70.15900000  *  152.30700000  * -36.17900000  *
    94       O         69.20400000  *  151.59400000  * -35.79000000  *
    95       O         70.91200000  *  152.89800000  * -35.37100000  *
    96       C         71.11500000  *  150.17600000  * -40.74500000  *
    97       O         70.38900000  *  149.19600000  * -40.55600000  *
    98       N         72.02800000  *  150.20900000  * -41.71800000  *
    99       H         72.65400000  *  151.00400000  * -41.78000000  *
   100       C         72.16000000  *  149.16700000  * -42.73700000  *
   101       H         71.16700000  *  148.81800000  * -43.02600000  *
   102       H         72.62700000  *  149.60800000  * -43.61700000  *
   103       C         72.99000000  *  147.95500000  * -42.30900000  *
   104       O         73.51300000  *  147.87000000  * -41.20100000  *
   105       N         73.17500000  *  147.03500000  * -43.25400000  *
   106       H         72.70000000  *  147.15600000  * -44.13900000  *
   107       C         74.04300000  *  145.84200000  * -43.15700000  *
   108       H         73.79300000  *  145.28700000  * -42.25200000  *
   109       C         73.79700000  *  144.92900000  * -44.37100000  *
   110       H         74.58800000  *  144.18200000  * -44.44900000  *
   111       C         72.45900000  *  144.21100000  * -44.27000000  *
   112       H         71.63900000  *  144.93000000  * -44.26200000  *
   113       H         72.35100000  *  143.54700000  * -45.12700000  *
   114       H         72.44100000  *  143.61000000  * -43.36200000  *
   115       O         73.77800000  *  145.72300000  * -45.53200000  *
   116       H         73.27000000  *  145.25900000  * -46.23400000  *
   117       C         75.54300000  *  146.15500000  * -43.09800000  *
   118       O         76.29400000  *  145.33300000  * -42.58000000  *
   119       N         75.96900000  *  147.32800000  * -43.59100000  *
   120       H         75.27400000  *  147.89100000  * -44.05200000  *
   121       C         77.38300000  *  147.72200000  * -43.75000000  *
   122       H         78.01100000  *  147.07400000  * -43.13500000  *
   123       C         77.79800000  *  147.53000000  * -45.22100000  *
   124       H         77.18800000  *  148.18000000  * -45.84800000  *
   125       H         78.83700000  *  147.83500000  * -45.34200000  *
   126       C         77.69800000  *  146.11100000  * -45.72500000  *
   127       C         78.62500000  *  145.15900000  * -45.26800000  *
   128       H         79.41700000  *  145.45000000  * -44.59000000  *
   129       C         78.50500000  *  143.82000000  * -45.67000000  *
   130       H         79.21100000  *  143.09400000  * -45.30000000  *
   131       C         77.45300000  *  143.43400000  * -46.52900000  *
   132       O         77.29000000  *  142.13100000  * -46.85700000  *
   133       H         77.77500000  *  141.57100000  * -46.22100000  *
   134       C         76.54600000  *  144.39700000  * -47.01500000  *
   135       H         75.73200000  *  144.10000000  * -47.65700000  *
   136       C         76.67800000  *  145.73900000  * -46.61900000  *
   137       H         75.96600000  *  146.47200000  * -46.97000000  *
   138       C         77.71500000  *  149.16700000  * -43.33200000  *
   139       O         78.85300000  *  149.59100000  * -43.51700000  *
   140       N         76.76700000  *  149.94500000  * -42.80100000  *
   141       H         75.86100000  *  149.55700000  * -42.58700000  *
   142       C         76.98200000  *  151.36200000  * -42.47900000  *
   143       H         77.53100000  *  151.44300000  * -41.54300000  *
   144       H         77.59300000  *  151.81100000  * -43.25300000  *
   145       C         75.68300000  *  152.16000000  * -42.34600000  *
   146       O         74.61700000  *  151.56900000  * -42.15200000  *
   147       N         75.75500000  *  153.49500000  * -42.44900000  *
   148       H         76.58800000  *  153.89400000  * -42.85900000  *
   149       C         74.59200000  *  154.32600000  * -42.21200000  *
   150       H         73.82600000  *  153.78000000  * -41.65800000  *
   151       C         74.95900000  *  155.54800000  * -41.37000000  *
   152       H         75.70700000  *  156.13900000  * -41.89300000  *
   153       C         73.73100000  *  156.40900000  * -41.13300000  *
   154       H         72.94300000  *  155.80300000  * -40.68200000  *
   155       H         73.98600000  *  157.21200000  * -40.45000000  *
   156       H         73.36800000  *  156.84900000  * -42.06500000  *
   157       C         75.54500000  *  155.09600000  * -40.05300000  *
   158       H         76.46000000  *  154.52800000  * -40.19800000  *
   159       H         75.77700000  *  155.95300000  * -39.42300000  *
   160       H         74.80500000  *  154.48400000  * -39.53200000  *
   161       C         74.01900000  *  154.79200000  * -43.53700000  *
   162       O         74.76100000  *  155.18400000  * -44.43700000  *
   163       N         72.70000000  *  154.66100000  * -43.66500000  *
   164       H         72.17300000  *  154.34900000  * -42.85400000  *
   165       C         71.92600000  *  155.10300000  * -44.82500000  *
   166       H         72.58800000  *  155.16200000  * -45.68700000  *
   167       C         70.78600000  *  154.11800000  * -45.15900000  *
   168       H         69.94500000  *  154.30700000  * -44.49300000  *
   169       C         70.32800000  *  154.33500000  * -46.60600000  *
   170       H         71.14100000  *  154.11100000  * -47.29700000  *
   171       H         69.48400000  *  153.68100000  * -46.82900000  *
   172       H         70.01900000  *  155.36700000  * -46.75400000  *
   173       C         71.16700000  *  152.64400000  * -44.98000000  *
   174       H         72.07300000  *  152.42200000  * -45.53800000  *
   175       H         71.32600000  *  152.42300000  * -43.92400000  *
   176       H         70.35400000  *  152.00900000  * -45.33500000  *
   177       C         71.36300000  *  156.49100000  * -44.52900000  *
   178       O         70.65000000  *  156.64900000  * -43.53300000  *
   179       N         71.62500000  *  157.49000000  * -45.37400000  *
   180       H         72.23900000  *  157.32200000  * -46.16900000  *
   181       C         71.01800000  *  158.79600000  * -45.21900000  *
   182       H         70.37900000  *  158.84300000  * -44.33800000  *
   183       C         72.10000000  *  159.86100000  * -45.06900000  *
   184       H         72.79900000  *  159.78100000  * -45.90500000  *
   185       H         71.63400000  *  160.84400000  * -45.14300000  *
   186       C         72.87100000  *  159.84300000  * -43.76800000  *
   187       C         72.34700000  *  160.43100000  * -42.61900000  *
   188       H         71.37700000  *  160.90600000  * -42.66800000  *
   189       C         73.06400000  *  160.45200000  * -41.42500000  *
   190       H         72.63300000  *  160.94600000  * -40.56800000  *
   191       C         74.33000000  *  159.87400000  * -41.37100000  *
   192       O         75.04700000  *  159.90100000  * -40.18700000  *
   193       H         74.69700000  *  160.54100000  * -39.56800000  *
   194       C         74.87500000  *  159.27800000  * -42.50300000  *
   195       H         75.78500000  *  158.71900000  * -42.41900000  *
   196       C         74.14000000  *  159.26700000  * -43.69600000  *
   197       H         74.51800000  *  158.73300000  * -44.56500000  *
   198       C         70.16700000  *  159.17400000  * -46.42900000  *
   199       O         70.41800000  *  158.72400000  * -47.55600000  *
   200       N         69.02400000  *  159.82200000  * -46.21200000  *
   201       H         68.83200000  *  160.12800000  * -45.26400000  *
   202       C         68.29400000  *  160.49900000  * -47.28400000  *
   203       H         68.28800000  *  159.89600000  * -48.19400000  *
   204       C         66.84700000  *  160.80700000  * -46.85000000  *
   205       H         66.34000000  *  159.87400000  * -46.61100000  *
   206       H         66.85900000  *  161.42700000  * -45.95200000  *
   207       C         66.03900000  *  161.51600000  * -47.94800000  *
   208       H         66.51700000  *  162.46100000  * -48.20800000  *
   209       H         66.01100000  *  160.88200000  * -48.83600000  *
   210       C         64.60600000  *  161.79500000  * -47.46900000  *
   211       H         64.14300000  *  160.85900000  * -47.14800000  *
   212       H         64.64300000  *  162.47600000  * -46.61700000  *
   213       C         63.76800000  *  162.41500000  * -48.59500000  *
   214       H         64.29600000  *  163.29300000  * -48.98200000  *
   215       H         63.68700000  *  161.68400000  * -49.40800000  *
   216       N         62.41300000  *  162.80900000  * -48.12500000  *
   217       H         62.46400000  *  163.50600000  * -47.39600000  *
   218       H         61.86600000  *  163.20700000  * -48.87700000  *
   219       H         61.90100000  *  162.01900000  * -47.75900000  *
   220       C         69.09800000  *  161.76100000  * -47.51000000  *
   221       O         69.32400000  *  162.49400000  * -46.55100000  *
   222       N         69.55500000  *  162.00600000  * -48.72500000  *
   223       H         69.34400000  *  161.34200000  * -49.46700000  *
   224       C         70.34900000  *  163.18200000  * -49.01700000  *
   225       H         70.22500000  *  163.93500000  * -48.24000000  *
   226       C         71.81400000  *  162.79200000  * -49.07000000  *
   227       H         71.97800000  *  162.06700000  * -49.86400000  *
   228       H         72.42900000  *  163.67700000  * -49.23900000  *
   229       H         72.10500000  *  162.33200000  * -48.12600000  *
   230       C         69.94400000  *  163.83800000  * -50.32200000  *
   231       O         69.22100000  *  163.25100000  * -51.12800000  *
   232       N         70.40700000  *  165.06400000  * -50.52400000  *
   233       H         70.93200000  *  165.53000000  * -49.79600000  *
   234       C         70.10800000  *  165.77900000  * -51.74600000  *
   235       H         69.54100000  *  165.15900000  * -52.44400000  *
   236       H         69.52200000  *  166.69100000  * -51.53000000  *
   237       H         71.05900000  *  166.04700000  * -52.23900000  *
   238       H         68.08600000  *  164.80700000  * -56.55000000  *
   239       C         68.21200000  *  164.39600000  * -55.53600000  *
   240       O         69.28600000  *  164.50800000  * -54.94200000  *
   241       N         67.13500000  *  163.82300000  * -55.01100000  *
   242       H         66.34000000  *  163.66800000  * -55.61500000  *
   243       C         67.13600000  *  163.21200000  * -53.68800000  *
   244       H         67.86300000  *  163.70700000  * -53.05000000  *
   245       C         65.75500000  *  163.32300000  * -53.02900000  *
   246       H         64.97700000  *  163.06900000  * -53.75000000  *
   247       C         65.64800000  *  162.36600000  * -51.85200000  *
   248       H         66.47200000  *  162.51800000  * -51.15200000  *
   249       H         64.69700000  *  162.53800000  * -51.34700000  *
   250       H         65.65200000  *  161.33900000  * -52.20000000  *
   251       C         65.54000000  *  164.75000000  * -52.56600000  *
   252       H         65.62600000  *  165.42400000  * -53.41600000  *
   253       H         64.53500000  *  164.85100000  * -52.15900000  *
   254       H         66.28400000  *  165.00300000  * -51.81000000  *
   255       C         67.52600000  *  161.76000000  * -53.84700000  *
   256       O         66.97900000  *  161.02800000  * -54.68200000  *
   257       N         68.49600000  *  161.34900000  * -53.04800000  *
   258       H         68.91100000  *  161.99700000  * -52.39100000  *
   259       C         69.01100000  *  159.99200000  * -53.10200000  *
   260       H         68.34600000  *  159.34100000  * -53.67900000  *
   261       C         70.37400000  *  159.97400000  * -53.81600000  *
   262       H         70.77500000  *  158.96500000  * -53.87500000  *
   263       C         70.21400000  *  160.50700000  * -55.21300000  *
   264       H         69.95700000  *  161.56600000  * -55.19000000  *
   265       H         71.15100000  *  160.39100000  * -55.75600000  *
   266       H         69.44200000  *  159.95000000  * -55.73600000  *
   267       C         71.37900000  *  160.85000000  * -53.05700000  *
   268       H         71.56500000  *  160.44500000  * -52.06400000  *
   269       H         72.31500000  *  160.84900000  * -53.61300000  *
   270       H         71.03600000  *  161.88400000  * -52.98400000  *
   271       C         69.19200000  *  159.37200000  * -51.72900000  *
   272       O         69.02000000  *  160.03600000  * -50.68600000  *
   273       N         69.38000000  *  158.05800000  * -51.70200000  *
   274       H         69.45000000  *  157.56300000  * -52.58700000  *
   275       C         69.75800000  *  157.32300000  * -50.51000000  *
   276       H         69.48200000  *  157.89100000  * -49.62200000  *
   277       C         68.99600000  *  156.00600000  * -50.46200000  *
   278       H         69.19700000  *  155.43100000  * -51.36200000  *
   279       H         69.30200000  *  155.43200000  * -49.58700000  *
   280       H         67.92900000  *  156.21600000  * -50.39400000  *
   281       C         71.27500000  *  157.14100000  * -50.53700000  *
   282       O         71.80800000  *  156.46000000  * -51.42000000  *
   283       N         71.97000000  *  157.79100000  * -49.60300000  *
   284       H         71.44500000  *  158.28300000  * -48.88900000  *
   285       C         73.41300000  *  157.73400000  * -49.53500000  *
   286       H         73.80300000  *  157.43200000  * -50.50200000  *
   287       C         73.96100000  *  159.11400000  * -49.18200000  *
   288       H         73.49200000  *  159.84000000  * -49.85100000  *
   289       H         73.62800000  *  159.35800000  * -48.16900000  *
   290       C         75.47300000  *  159.31600000  * -49.26600000  *
   291       H         75.96900000  *  158.63700000  * -48.57100000  *
   292       C         75.94900000  *  159.02000000  * -50.68400000  *
   293       H         75.44100000  *  159.71800000  * -51.34800000  *
   294       H         77.02400000  *  159.18800000  * -50.76300000  *
   295       H         75.74700000  *  157.98700000  * -50.96800000  *
   296       C         75.80400000  *  160.74000000  * -48.87900000  *
   297       H         75.43700000  *  160.94600000  * -47.87600000  *
   298       H         76.88200000  *  160.87900000  * -48.92200000  *
   299       H         75.32000000  *  161.42900000  * -49.57600000  *
   300       C         73.82100000  *  156.71600000  * -48.48500000  *
   301       O         73.39600000  *  156.78100000  * -47.33400000  *
   302       N         74.65300000  *  155.75700000  * -48.88200000  *
   303       H         74.89900000  *  155.73500000  * -49.86900000  *
   304       C         75.12800000  *  154.64200000  * -48.05200000  *
   305       H         74.61100000  *  154.63900000  * -47.09100000  *
   306       C         74.81700000  *  153.33400000  * -48.81500000  *
   307       H         74.26900000  *  153.57400000  * -49.72900000  *
   308       H         75.74200000  *  152.84900000  * -49.12500000  *
   309       C         73.96100000  *  152.31300000  * -48.06100000  *
   310       H         73.17400000  *  152.82600000  * -47.51000000  *
   311       H         73.48900000  *  151.69000000  * -48.81900000  *
   312       C         74.79300000  *  151.42600000  * -47.11800000  *
   313       H         75.71000000  *  151.12000000  * -47.62300000  *
   314       H         75.07900000  *  152.01300000  * -46.24100000  *
   315       C         74.04700000  *  150.15800000  * -46.66100000  *
   316       H         74.70800000  *  149.61000000  * -45.98300000  *
   317       H         73.15700000  *  150.45500000  * -46.09400000  *
   318       N         73.65900000  *  149.28600000  * -47.80900000  *
   319       H         74.42900000  *  149.11000000  * -48.44200000  *
   320       H         73.30500000  *  148.36500000  * -47.51800000  *
   321       H         72.88200000  *  149.69100000  * -48.32300000  *
   322       C         76.62300000  *  154.83300000  * -47.79300000  *
   323       O         77.41400000  *  154.64700000  * -48.70900000  *
   324       N         77.01700000  *  155.22600000  * -46.58100000  *
   325       H         76.29800000  *  155.26800000  * -45.86500000  *
   326       C         78.42200000  *  155.28900000  * -46.15900000  *
   327       H         79.06600000  *  155.59300000  * -46.98900000  *
   328       C         78.56700000  *  156.26000000  * -44.97900000  *
   329       H         78.02700000  *  155.87500000  * -44.10900000  *
   330       H         79.62500000  *  156.33900000  * -44.73000000  *
   331       C         78.01500000  *  157.64300000  * -45.34000000  *
   332       H         78.45100000  *  157.95800000  * -46.27300000  *
   333       H         76.93600000  *  157.57500000  * -45.50000000  *
   334       C         78.25100000  *  158.72500000  * -44.27900000  *
   335       H         77.97800000  *  159.68000000  * -44.73200000  *
   336       H         77.56000000  *  158.53300000  * -43.46900000  *
   337       C         79.67700000  *  158.85000000  * -43.70900000  *
   338       H         80.38400000  *  158.36300000  * -44.39700000  *
   339       H         79.95000000  *  159.91100000  * -43.68600000  *
   340       N         79.78800000  *  158.26900000  * -42.33500000  *
   341       H         79.63700000  *  157.26100000  * -42.37000000  *
   342       H         80.69600000  *  158.42600000  * -41.93200000  *
   343       H         79.10400000  *  158.64600000  * -41.70100000  *
   344       C         78.82300000  *  153.89100000  * -45.72900000  *
   345       O         78.09100000  *  153.31500000  * -44.93700000  *
   346       N         79.90700000  *  153.32000000  * -46.24700000  *
   347       H         80.40500000  *  153.76400000  * -47.01000000  *
   348       C         80.34300000  *  152.02200000  * -45.76800000  *
   349       H         79.49500000  *  151.49800000  * -45.35900000  *
   350       C         80.94400000  *  151.18600000  * -46.89500000  *
   351       H         81.78600000  *  151.78200000  * -47.16900000  *
   352       C         81.42400000  *  149.85200000  * -46.34500000  *
   353       H         80.65600000  *  149.35200000  * -45.75200000  *
   354       H         81.67900000  *  149.19900000  * -47.17900000  *
   355       H         82.34500000  *  149.95700000  * -45.76100000  *
   356       C         79.89700000  *  150.97600000  * -47.99700000  *
   357       H         79.60200000  *  151.87000000  * -48.50000000  *
   358       H         80.28300000  *  150.30500000  * -48.75000000  *
   359       C         78.59100000  *  150.36100000  * -47.52600000  *
   360       H         78.17700000  *  150.90100000  * -46.69000000  *
   361       H         77.89400000  *  150.33700000  * -48.36300000  *
   362       H         78.77100000  *  149.33300000  * -47.20900000  *
   363       C         81.33300000  *  152.07100000  * -44.61400000  *
   364       O         82.16700000  *  152.98000000  * -44.51900000  *
   365       N         81.21100000  *  151.07100000  * -43.74300000  *
   366       H         80.50300000  *  150.36100000  * -43.92800000  *
   367       C         82.04400000  *  150.90200000  * -42.55200000  *
   368       H         81.47500000  *  151.18100000  * -41.66300000  *
   369       H         82.35800000  *  149.86100000  * -42.45900000  *
   370       H         82.94700000  *  151.51400000  * -42.62000000  *
   371       H         81.25700000  *  144.04600000  * -57.89900000  *
   372       C         80.50000000  *  144.84100000  * -57.88800000  *
   373       O         79.71500000  *  144.99000000  * -58.82400000  *
   374       N         80.49900000  *  145.60300000  * -56.79700000  *
   375       H         81.28000000  *  145.52500000  * -56.16600000  *
   376       C         79.57000000  *  146.70600000  * -56.61200000  *
   377       H         78.57500000  *  146.34400000  * -56.42300000  *
   378       C         80.00500000  *  147.61000000  * -55.44200000  *
   379       H         80.89800000  *  148.18000000  * -55.68500000  *
   380       C         78.90600000  *  148.60800000  * -55.12500000  *
   381       H         77.92000000  *  148.14100000  * -55.17600000  *
   382       H         79.04500000  *  148.98700000  * -54.11600000  *
   383       H         78.93800000  *  149.43600000  * -55.83300000  *
   384       C         80.32100000  *  146.76200000  * -54.20900000  *
   385       H         81.19200000  *  146.13400000  * -54.40600000  *
   386       H         80.59400000  *  147.42200000  * -53.38900000  *
   387       C         79.18400000  *  145.87900000  * -53.76500000  *
   388       H         78.77800000  *  145.31100000  * -54.59400000  *
   389       H         79.50900000  *  145.12200000  * -53.06500000  *
   390       H         78.38800000  *  146.48300000  * -53.33500000  *
   391       C         79.54300000  *  147.54500000  * -57.87900000  *
   392       O         78.48200000  *  147.77900000  * -58.45100000  *
   393       N         80.72300000  *  147.98900000  * -58.30900000  *
   394       H         81.55800000  *  147.70100000  * -57.81200000  *
   395       C         80.85900000  *  148.80400000  * -59.51100000  *
   396       H         80.33900000  *  149.74600000  * -59.38600000  *
   397       H         81.92800000  *  148.98500000  * -59.72900000  *
   398       H         80.37800000  *  148.32200000  * -60.38100000  *
   399       H         78.96400000  *  146.08700000  * -61.65600000  *
   400       C         77.87300000  *  146.08700000  * -61.51600000  *
   401       O         77.11500000  *  145.89500000  * -62.46400000  *
   402       N         77.44600000  *  146.31800000  * -60.28000000  *
   403       H         78.13400000  *  146.42500000  * -59.54900000  *
   404       C         76.02800000  *  146.35200000  * -59.94500000  *
   405       H         75.53300000  *  145.47600000  * -60.35900000  *
   406       C         75.84100000  *  146.37400000  * -58.43100000  *
   407       H         76.20500000  *  147.30400000  * -58.01800000  *
   408       H         74.76300000  *  146.35700000  * -58.24200000  *
   409       C         76.47200000  *  145.22200000  * -57.65900000  *
   410       H         77.55000000  *  145.23900000  * -57.74900000  *
   411       C         76.08000000  *  145.34100000  * -56.19200000  *
   412       H         74.99900000  *  145.23000000  * -56.07700000  *
   413       H         76.57300000  *  144.55300000  * -55.62900000  *
   414       H         76.38500000  *  146.30900000  * -55.80100000  *
   415       C         75.99600000  *  143.89000000  * -58.23600000  *
   416       H         76.41500000  *  143.73000000  * -59.22900000  *
   417       H         76.32800000  *  143.07800000  * -57.59100000  *
   418       H         74.90500000  *  143.87400000  * -58.30500000  *
   419       C         75.32200000  *  147.55900000  * -60.54800000  *
   420       O         74.09500000  *  147.56800000  * -60.66200000  *
   421       N         76.08400000  *  148.63100000  * -60.82900000  *
   422       H         77.08200000  *  148.53500000  * -60.67700000  *
   423       C         75.60100000  *  149.83300000  * -61.53400000  *
   424       H         74.83700000  *  150.33500000  * -60.94100000  *
   425       H         76.43800000  *  150.53300000  * -61.75900000  *
   426       H         75.13800000  *  149.54900000  * -62.49200000  *
   427       H         62.79000000  *  145.77200000  * -59.27600000  *
   428       C         63.71000000  *  145.72000000  * -58.67500000  *
   429       O         63.77900000  *  145.02200000  * -57.66400000  *
   430       N         64.72400000  *  146.45200000  * -59.11400000  *
   431       H         64.63800000  *  147.05100000  * -59.92700000  *
   432       C         65.97100000  *  146.53500000  * -58.38100000  *
   433       H         65.88400000  *  146.09200000  * -57.38600000  *
   434       C         67.11600000  *  145.87700000  * -59.11400000  *
   435       H         67.33600000  *  146.42600000  * -60.03000000  *
   436       C         68.35100000  *  145.87800000  * -58.21400000  *
   437       H         68.14700000  *  145.31400000  * -57.31800000  *
   438       H         69.21000000  *  145.44500000  * -58.72400000  *
   439       H         68.64100000  *  146.89000000  * -57.94500000  *
   440       C         66.72800000  *  144.44400000  * -59.47800000  *
   441       H         66.54900000  *  143.87300000  * -58.56400000  *
   442       H         65.81500000  *  144.42400000  * -60.06800000  *
   443       C         67.77400000  *  143.72700000  * -60.29600000  *
   444       H         68.68300000  *  143.57700000  * -59.72200000  *
   445       H         67.37700000  *  142.75300000  * -60.59800000  *
   446       H         68.02300000  *  144.31300000  * -61.18000000  *
   447       C         66.29500000  *  148.01000000  * -58.22000000  *
   448       O         66.21200000  *  148.78000000  * -59.18400000  *
   449       N         66.54700000  *  148.44000000  * -56.98100000  *
   450       H         66.61400000  *  147.75900000  * -56.23000000  *
   451       C         66.89200000  *  149.83500000  * -56.68600000  *
   452       H         66.07800000  *  150.48400000  * -57.01300000  *
   453       C         67.10300000  *  150.04000000  * -55.18000000  *
   454       H         67.88200000  *  149.36100000  * -54.82900000  *
   455       C         67.52100000  *  151.47200000  * -54.84000000  *
   456       H         66.71600000  *  152.17300000  * -55.06200000  *
   457       H         67.76300000  *  151.51400000  * -53.78000000  *
   458       H         68.40800000  *  151.76400000  * -55.39700000  *
   459       C         65.81200000  *  149.75000000  * -54.41300000  *
   460       H         65.53700000  *  148.70300000  * -54.50100000  *
   461       H         65.97600000  *  149.97000000  * -53.36400000  *
   462       H         65.00200000  *  150.36900000  * -54.79300000  *
   463       C         68.15100000  *  150.20900000  * -57.46100000  *
   464       O         69.17700000  *  149.53400000  * -57.34700000  *
   465       N         68.08000000  *  151.28300000  * -58.25100000  *
   466       H         67.22500000  *  151.80400000  * -58.24500000  *
   467       C         69.18900000  *  151.69800000  * -59.08000000  *
   468       H         69.52500000  *  150.81900000  * -59.63900000  *
   469       C         68.73700000  *  152.76800000  * -60.08300000  *
   470       H         67.83400000  *  152.41100000  * -60.57900000  *
   471       H         68.47700000  *  153.68100000  * -59.53700000  *
   472       C         69.79100000  *  153.06900000  * -61.13100000  *
   473       H         70.72100000  *  153.35000000  * -60.64200000  *
   474       H         69.97400000  *  152.16800000  * -61.71600000  *
   475       C         69.35100000  *  154.17900000  * -62.08100000  *
   476       H         68.50200000  *  153.81400000  * -62.66100000  *
   477       H         69.02300000  *  155.05600000  * -61.52200000  *
   478       C         70.49800000  *  154.55900000  * -63.02400000  *
   479       H         71.33900000  *  154.89000000  * -62.40800000  *
   480       H         70.81900000  *  153.66100000  * -63.56600000  *
   481       N         70.11800000  *  155.62600000  * -63.99700000  *
   482       H         69.74700000  *  156.41600000  * -63.48300000  *
   483       H         70.92600000  *  155.93300000  * -64.52500000  *
   484       H         69.41500000  *  155.27800000  * -64.63600000  *
   485       C         70.36000000  *  152.21400000  * -58.25300000  *
   486       O         70.19400000  *  153.07400000  * -57.38700000  *
   487       N         71.53700000  *  151.64500000  * -58.50700000  *
   488       H         71.59600000  *  150.90400000  * -59.18600000  *
   489       C         72.75000000  *  152.07400000  * -57.83600000  *
   490       H         72.53800000  *  152.52600000  * -56.87100000  *
   491       C         73.72700000  *  150.91100000  * -57.67000000  *
   492       H         73.31500000  *  150.22100000  * -56.93700000  *
   493       H         73.77900000  *  150.36900000  * -58.62000000  *
   494       C         75.16700000  *  151.27300000  * -57.28800000  *
   495       H         75.65500000  *  151.80300000  * -58.10000000  *
   496       C         75.18300000  *  152.16500000  * -56.05900000  *
   497       H         74.60800000  *  151.72100000  * -55.25200000  *
   498       H         76.21000000  *  152.29600000  * -55.73500000  *
   499       H         74.78900000  *  153.14000000  * -56.31200000  *
   500       C         75.93300000  *  149.99400000  * -57.01300000  *
   501       H         75.98300000  *  149.42100000  * -57.93300000  *
   502       H         76.94600000  *  150.24200000  * -56.71200000  *
   503       H         75.43500000  *  149.41000000  * -56.23200000  *
   504       C         73.31900000  *  153.11300000  * -58.79500000  *
   505       O         73.76900000  *  152.77900000  * -59.89700000  *
   506       N         73.26700000  *  154.36900000  * -58.37800000  *
   507       H         72.92600000  *  154.57000000  * -57.44900000  *
   508       C         73.73400000  *  155.46600000  * -59.19700000  *
   509       H         73.47500000  *  155.26500000  * -60.23600000  *
   510       C         73.02500000  *  156.74200000  * -58.76000000  *
   511       H         73.45000000  *  157.06300000  * -57.80900000  *
   512       H         73.23600000  *  157.53300000  * -59.48700000  *
   513       C         71.51300000  *  156.60300000  * -58.58700000  *
   514       H         71.27400000  *  155.80900000  * -57.88500000  *
   515       C         70.97400000  *  157.88000000  * -58.01900000  *
   516       H         71.37000000  *  158.74600000  * -58.56000000  *
   517       H         69.88800000  *  157.89100000  * -58.09300000  *
   518       H         71.22100000  *  157.96000000  * -56.96600000  *
   519       C         70.85100000  *  156.29000000  * -59.92300000  *
   520       H         71.28300000  *  155.39700000  * -60.34200000  *
   521       H         69.78900000  *  156.14400000  * -59.75100000  *
   522       H         71.00300000  *  157.12700000  * -60.60700000  *
   523       C         75.24500000  *  155.67800000  * -59.15800000  *
   524       O         75.83900000  *  156.04700000  * -60.17600000  *
   525       N         75.86200000  *  155.44600000  * -57.99600000  *
   526       H         75.29500000  *  155.17900000  * -57.20400000  *
   527       C         77.30800000  *  155.64700000  * -57.82900000  *
   528       H         77.80800000  *  155.40400000  * -58.76600000  *
   529       C         77.60000000  *  157.11700000  * -57.51900000  *
   530       H         76.91700000  *  157.54400000  * -56.80300000  *
   531       H         78.58200000  *  157.17000000  * -57.04800000  *
   532       C         77.65600000  *  157.97500000  * -58.75600000  *
   533       O         78.67800000  *  157.91700000  * -59.48300000  *
   534       O         76.67400000  *  158.70400000  * -59.00000000  *
   535       C         77.97900000  *  154.81700000  * -56.73400000  *
   536       O         77.37100000  *  154.52100000  * -55.70400000  *
   537       N         79.24700000  *  154.47700000  * -56.96600000  *
   538       H         79.69800000  *  154.82400000  * -57.79800000  *
   539       C         80.06100000  *  153.73800000  * -56.00300000  *
   540       H         79.55400000  *  153.69900000  * -55.05200000  *
   541       C         80.36600000  *  152.29800000  * -56.50400000  *
   542       H         79.42700000  *  151.75200000  * -56.56200000  *
   543       C         80.98100000  *  152.34300000  * -57.88400000  *
   544       H         82.06600000  *  152.43300000  * -57.82100000  *
   545       H         80.74600000  *  151.41400000  * -58.37900000  *
   546       H         80.59600000  *  153.14500000  * -58.51000000  *
   547       C         81.29900000  *  151.58800000  * -55.53900000  *
   548       H         80.81100000  *  151.54900000  * -54.57200000  *
   549       H         81.47300000  *  150.57200000  * -55.87800000  *
   550       H         82.25900000  *  152.09200000  * -55.44900000  *
   551       C         81.36500000  *  154.53600000  * -55.81000000  *
   552       O         82.27000000  *  154.48900000  * -56.64700000  *
   553       N         81.45200000  *  155.28200000  * -54.71000000  *
   554       H         80.67600000  *  155.30400000  * -54.06400000  *
   555       C         82.62100000  *  156.11100000  * -54.44300000  *
   556       H         83.20500000  *  156.21800000  * -55.35800000  *
   557       H         82.32200000  *  157.12800000  * -54.14500000  *
   558       H         83.29700000  *  155.73900000  * -53.65600000  *
   559       H         84.58000000  *  155.17100000  * -47.07300000  *
   560       C         84.22500000  *  154.98400000  * -48.09100000  *
   561       O         84.63900000  *  155.65900000  * -49.04200000  *
   562       N         83.35800000  *  153.99100000  * -48.22200000  *
   563       H         83.13600000  *  153.42800000  * -47.41700000  *
   564       C         82.77600000  *  153.65100000  * -49.50600000  *
   565       H         83.37000000  *  154.04700000  * -50.31700000  *
   566       C         82.71900000  *  152.14000000  * -49.66000000  *
   567       H         83.74000000  *  151.87500000  * -49.95700000  *
   568       H         82.64400000  *  151.54600000  * -48.78400000  *
   569       C         81.82600000  *  151.61900000  * -50.77900000  *
   570       H         80.79100000  *  151.88400000  * -50.58700000  *
   571       C         82.25800000  *  152.23100000  * -52.09200000  *
   572       H         83.31100000  *  152.49100000  * -52.08900000  *
   573       H         82.09300000  *  151.51300000  * -52.88400000  *
   574       H         81.65400000  *  153.10900000  * -52.31200000  *
   575       C         81.89900000  *  150.09400000  * -50.82200000  *
   576       H         81.91300000  *  149.66400000  * -49.82700000  *
   577       H         81.05200000  *  149.70600000  * -51.39100000  *
   578       H         82.82500000  *  149.80300000  * -51.32100000  *
   579       C         81.36700000  *  154.23200000  * -49.54800000  *
   580       O         80.51800000  *  153.85700000  * -48.74500000  *
   581       N         81.13100000  *  155.16100000  * -50.46700000  *
   582       H         81.84500000  *  155.34800000  * -51.16200000  *
   583       C         79.82200000  *  155.78100000  * -50.60800000  *
   584       H         79.27400000  *  155.67000000  * -49.68700000  *
   585       C         79.96700000  *  157.27800000  * -50.86800000  *
   586       H         80.42300000  *  157.50400000  * -51.79700000  *
   587       H         78.95400000  *  157.66400000  * -50.98900000  *
   588       C         80.57600000  *  158.04300000  * -49.72300000  *
   589       C         79.79300000  *  158.48000000  * -48.65600000  *
   590       H         78.73500000  *  158.25400000  * -48.66900000  *
   591       C         80.35600000  *  159.18600000  * -47.59400000  *
   592       H         79.75300000  *  159.56200000  * -46.79700000  *
   593       C         81.71600000  *  159.45200000  * -47.58700000  *
   594       O         82.27600000  *  160.12500000  * -46.52100000  *
   595       H         83.20600000  *  160.30800000  * -46.74500000  *
   596       C         82.51400000  *  159.02600000  * -48.63700000  *
   597       H         83.58200000  *  159.23300000  * -48.65000000  *
   598       C         81.94100000  *  158.32800000  * -49.69800000  *
   599       H         82.57400000  *  157.98100000  * -50.50200000  *
   600       C         79.04800000  *  155.15800000  * -51.76500000  *
   601       O         79.54400000  *  155.08000000  * -52.88800000  *
   602       N         77.86200000  *  154.62400000  * -51.49400000  *
   603       H         77.53800000  *  154.64500000  * -50.53300000  *
   604       C         76.98000000  *  154.05400000  * -52.51100000  *
   605       H         77.50400000  *  153.99800000  * -53.45900000  *
   606       C         76.54300000  *  152.62500000  * -52.14700000  *
   607       H         75.85600000  *  152.67700000  * -51.31000000  *
   608       H         75.99400000  *  152.21800000  * -52.99700000  *
   609       C         77.67700000  *  151.65300000  * -51.78100000  *
   610       H         78.19000000  *  152.00200000  * -50.88600000  *
   611       C         77.10300000  *  150.26500000  * -51.49800000  *
   612       H         76.61100000  *  149.87200000  * -52.38900000  *
   613       H         77.90600000  *  149.58700000  * -51.20600000  *
   614       H         76.38300000  *  150.32300000  * -50.68300000  *
   615       C         78.68500000  *  151.52500000  * -52.91700000  *
   616       H         79.20700000  *  152.46900000  * -53.05100000  *
   617       H         79.41900000  *  150.76200000  * -52.66800000  *
   618       H         78.17300000  *  151.25900000  * -53.84300000  *
   619       C         75.78500000  *  154.98600000  * -52.67200000  *
   620       O         75.10100000  *  155.26100000  * -51.68200000  *
   621       N         75.54700000  *  155.50800000  * -53.87800000  *
   622       H         76.14500000  *  155.25500000  * -54.66000000  *
   623       C         74.40900000  *  156.37500000  * -54.09400000  *
   624       H         73.97600000  *  156.70200000  * -53.15000000  *
   625       C         74.83400000  *  157.63700000  * -54.81800000  *
   626       H         75.25500000  *  157.34500000  * -55.76600000  *
   627       C         73.61400000  *  158.52200000  * -55.10900000  *
   628       H         73.11700000  *  158.76900000  * -54.17500000  *
   629       H         73.94100000  *  159.43100000  * -55.61500000  *
   630       H         72.91600000  *  158.00900000  * -55.76200000  *
   631       C         75.84000000  *  158.38200000  * -53.94900000  *
   632       H         75.28100000  *  158.78400000  * -53.13000000  *
   633       H         76.65600000  *  157.75800000  * -53.60500000  *
   634       H         76.26100000  *  159.20400000  * -54.52500000  *
   635       C         73.31400000  *  155.64400000  * -54.85300000  *
   636       O         73.49500000  *  155.22100000  * -55.99400000  *
   637       N         72.18700000  *  155.42500000  * -54.17800000  *
   638       H         72.11600000  *  155.78200000  * -53.22900000  *
   639       C         71.00200000  *  154.76400000  * -54.72200000  *
   640       H         71.25600000  *  154.29400000  * -55.66800000  *
   641       C         70.53000000  *  153.67600000  * -53.75300000  *
   642       H         70.35000000  *  154.12700000  * -52.77800000  *
   643       H         69.57400000  *  153.29500000  * -54.10600000  *
   644       C         71.47800000  *  152.50500000  * -53.57900000  *
   645       C         71.40500000  *  151.40100000  * -54.45100000  *
   646       H         70.69700000  *  151.39900000  * -55.26700000  *
   647       C         72.24400000  *  150.28900000  * -54.25900000  *
   648       H         72.17800000  *  149.43900000  * -54.92500000  *
   649       C         73.16500000  *  150.27900000  * -53.19800000  *
   650       H         73.81100000  *  149.42300000  * -53.04900000  *
   651       C         73.24500000  *  151.38100000  * -52.32900000  *
   652       H         73.94500000  *  151.36700000  * -51.50800000  *
   653       C         72.40800000  *  152.49600000  * -52.52100000  *
   654       H         72.47100000  *  153.34100000  * -51.84900000  *
   655       C         69.87200000  *  155.77200000  * -54.97200000  *
   656       O         69.71500000  *  156.73300000  * -54.21900000  *
   657       N         69.06500000  *  155.56100000  * -56.01600000  *
   658       H         69.23100000  *  154.74000000  * -56.58800000  *
   659       C         67.80500000  *  156.30600000  * -56.19500000  *
   660       H         68.04900000  *  157.35500000  * -56.36700000  *
   661       C         67.04600000  *  155.78700000  * -57.43000000  *
   662       H         66.19700000  *  156.44900000  * -57.60100000  *
   663       H         67.70400000  *  155.84100000  * -58.29800000  *
   664       C         66.53000000  *  154.34500000  * -57.27700000  *
   665       H         67.37900000  *  153.68400000  * -57.09600000  *
   666       H         65.86700000  *  154.28700000  * -56.41800000  *
   667       C         65.72800000  *  153.82900000  * -58.47400000  *
   668       O         65.26900000  *  154.62900000  * -59.32100000  *
   669       O         65.51000000  *  152.59800000  * -58.52800000  *
   670       C         66.93100000  *  156.22000000  * -54.92600000  *
   671       O         66.82700000  *  155.15300000  * -54.32700000  *
   672       N         66.30300000  *  157.31100000  * -54.48300000  *
   673       H         66.36600000  *  158.17500000  * -55.00400000  *
   674       C         65.45400000  *  157.28300000  * -53.28300000  *
   675       H         65.94500000  *  156.67000000  * -52.52500000  *
   676       C         65.33700000  *  158.69800000  * -52.71300000  *
   677       H         66.33700000  *  159.06100000  * -52.48000000  *
   678       H         64.91200000  *  159.35200000  * -53.47600000  *
   679       C         64.49800000  *  158.79800000  * -51.45300000  *
   680       C         63.17700000  *  159.28200000  * -51.51600000  *
   681       H         62.75500000  *  159.58900000  * -52.46300000  *
   682       C         62.40000000  *  159.36500000  * -50.34800000  *
   683       H         61.38600000  *  159.73600000  * -50.40100000  *
   684       C         62.93700000  *  158.96000000  * -49.11400000  *
   685       H         62.33600000  *  159.01200000  * -48.21600000  *
   686       C         64.25900000  *  158.48900000  * -49.04800000  *
   687       H         64.67400000  *  158.18300000  * -48.09700000  *
   688       C         65.03900000  *  158.40500000  * -50.21500000  *
   689       H         66.05200000  *  158.03200000  * -50.16100000  *
   690       C         64.06900000  *  156.66700000  * -53.55500000  *
   691       O         63.41700000  *  157.01300000  * -54.54400000  *
   692       N         63.59400000  *  155.80800000  * -52.64600000  *
   693       H         64.20800000  *  155.54000000  * -51.88300000  *
   694       C         62.20700000  *  155.32100000  * -52.58500000  *
   695       H         61.60300000  *  155.83200000  * -53.33600000  *
   696       C         62.13700000  *  153.80700000  * -52.84900000  *
   697       H         62.87800000  *  153.29700000  * -52.23300000  *
   698       H         61.15200000  *  153.46900000  * -52.52500000  *
   699       C         62.31500000  *  153.42200000  * -54.33000000  *
   700       H         61.95900000  *  154.23300000  * -54.96600000  *
   701       C         63.77700000  *  153.12300000  * -54.66300000  *
   702       H         64.15600000  *  152.34400000  * -54.00500000  *
   703       H         63.86800000  *  152.81100000  * -55.70200000  *
   704       H         64.37600000  *  154.02000000  * -54.52300000  *
   705       C         61.49500000  *  152.17300000  * -54.66200000  *
   706       H         60.44600000  *  152.34200000  * -54.41400000  *
   707       H         61.56000000  *  151.96300000  * -55.72700000  *
   708       H         61.86100000  *  151.31700000  * -54.09900000  *
   709       C         61.59600000  *  155.64800000  * -51.21700000  *
   710       O         62.25700000  *  155.53900000  * -50.19000000  *
   711       N         60.33700000  *  156.07700000  * -51.19300000  *
   712       H         59.85000000  *  156.17200000  * -52.07500000  *
   713       C         59.74000000  *  156.75200000  * -50.03400000  *
   714       H         60.45200000  *  157.50000000  * -49.68400000  *
   715       C         58.48700000  *  157.50800000  * -50.49600000  *
   716       H         57.71700000  *  156.78500000  * -50.76600000  *
   717       H         58.12300000  *  158.10500000  * -49.66100000  *
   718       C         58.71100000  *  158.42900000  * -51.67500000  *
   719       N         58.84700000  *  158.02700000  * -53.00900000  *
   720       C         59.05000000  *  159.15400000  * -53.71400000  *
   721       H         59.19600000  *  159.19800000  * -54.78800000  *
   722       N         59.04700000  *  160.22200000  * -52.89900000  *
   723       H         59.17500000  *  161.18500000  * -53.19900000  *
   724       C         58.83400000  *  159.78600000  * -51.61000000  *
   725       H         58.77800000  *  160.39400000  * -50.71500000  *
   726       C         59.44300000  *  155.86500000  * -48.81000000  *
   727       O         59.27500000  *  156.40500000  * -47.71500000  *
   728       N         59.37300000  *  154.53400000  * -48.95500000  *
   729       H         59.52400000  *  154.14200000  * -49.87600000  *
   730       C         59.02500000  *  153.60200000  * -47.86800000  *
   731       H         59.47200000  *  153.97500000  * -46.94500000  *
   732       C         57.49000000  *  153.60500000  * -47.69100000  *
   733       H         57.17700000  *  154.62300000  * -47.45400000  *
   734       H         57.01100000  *  153.31900000  * -48.62900000  *
   735       C         56.99200000  *  152.67300000  * -46.57400000  *
   736       H         56.84000000  *  151.67400000  * -46.98100000  *
   737       H         57.74700000  *  152.61600000  * -45.79000000  *
   738       C         55.70500000  *  153.16200000  * -45.91900000  *
   739       O         55.72100000  *  153.86900000  * -44.92400000  *
   740       N         54.54700000  *  152.80300000  * -46.43000000  *
   741       H         53.72100000  *  153.14200000  * -45.96100000  *
   742       H         54.50500000  *  152.24800000  * -47.26600000  *
   743       C         59.58500000  *  152.18200000  * -48.09900000  *
   744       O         59.72500000  *  151.74100000  * -49.23900000  *
   745       N         59.89400000  *  151.45700000  * -47.01600000  *
   746       H         59.74200000  *  151.86400000  * -46.10700000  *
   747       C         60.26100000  *  150.03100000  * -47.04800000  *
   748       H         60.58000000  *  149.78500000  * -48.05600000  *
   749       C         61.45700000  *  149.74600000  * -46.12300000  *
   750       H         61.78100000  *  148.71800000  * -46.29300000  *
   751       H         62.28700000  *  150.39200000  * -46.40900000  *
   752       C         61.15400000  *  149.92700000  * -44.63200000  *
   753       O         60.31200000  *  149.17100000  * -44.10500000  *
   754       O         61.77900000  *  150.80400000  * -43.99300000  *
   755       C         59.06900000  *  149.11100000  * -46.72000000  *
   756       O         58.04600000  *  149.54700000  * -46.17400000  *
   757       N         59.19100000  *  147.81900000  * -47.04800000  *
   758       H         60.03800000  *  147.50900000  * -47.52500000  *
   759       C         58.10100000  *  146.88000000  * -46.84100000  *
   760       H         57.21800000  *  147.32500000  * -47.29300000  *
   761       C         58.41200000  *  145.57700000  * -47.59200000  *
   762       H         58.61300000  *  145.80400000  * -48.64400000  *
   763       H         59.28800000  *  145.12100000  * -47.15800000  *
   764       C         57.28700000  *  144.52700000  * -47.51900000  *
   765       H         57.05600000  *  144.28000000  * -46.48700000  *
   766       C         56.00700000  *  145.04400000  * -48.19600000  *
   767       H         56.23500000  *  145.37800000  * -49.20200000  *
   768       H         55.26800000  *  144.24500000  * -48.23100000  *
   769       H         55.59500000  *  145.87000000  * -47.62900000  *
   770       C         57.76800000  *  143.24900000  * -48.17500000  *
   771       H         58.61500000  *  142.85400000  * -47.62000000  *
   772       H         56.97300000  *  142.50400000  * -48.17100000  *
   773       H         58.06400000  *  143.44500000  * -49.20700000  *
   774       C         57.76400000  *  146.61300000  * -45.36900000  *
   775       O         56.60900000  *  146.37600000  * -45.03000000  *
   776       N         58.75700000  *  146.67700000  * -44.48800000  *
   777       H         59.64000000  *  147.08600000  * -44.79000000  *
   778       C         58.49100000  *  146.46700000  * -43.07300000  *
   779       H         57.97900000  *  145.55100000  * -42.87200000  *
   780       C         59.78200000  *  146.47800000  * -42.25400000  *
   781       H         60.44800000  *  145.70000000  * -42.62000000  *
   782       H         60.28600000  *  147.44000000  * -42.35600000  *
   783       C         59.49200000  *  146.22900000  * -40.76500000  *
   784       H         58.94200000  *  147.08300000  * -40.37400000  *
   785       H         58.87100000  *  145.33200000  * -40.67600000  *
   786       C         60.74500000  *  146.03800000  * -39.93500000  *
   787       H         61.36100000  *  145.25900000  * -40.37900000  *
   788       H         61.30800000  *  146.97100000  * -39.90700000  *
   789       C         60.37600000  *  145.60700000  * -38.51700000  *
   790       H         59.98500000  *  144.58900000  * -38.53700000  *
   791       H         61.27900000  *  145.61300000  * -37.90300000  *
   792       N         59.34600000  *  146.53100000  * -37.94700000  *
   793       H         58.44600000  *  146.48100000  * -38.44300000  *
   794       H         59.09000000  *  146.27800000  * -37.00400000  *
   795       H         59.61300000  *  147.50600000  * -37.97800000  *
   796       C         57.55800000  *  147.53800000  * -42.51200000  *
   797       O         56.61300000  *  147.23400000  * -41.78300000  *
   798       N         57.83900000  *  148.81000000  * -42.80800000  *
   799       H         58.67600000  *  148.99100000  * -43.36900000  *
   800       C         57.02300000  *  149.93900000  * -42.34900000  *
   801       H         56.92400000  *  149.88000000  * -41.26300000  *
   802       C         57.73400000  *  151.25600000  * -42.69800000  *
   803       H         58.75400000  *  151.21300000  * -42.31300000  *
   804       H         57.77800000  *  151.37000000  * -43.78100000  *
   805       C         57.02800000  *  152.47100000  * -42.07600000  *
   806       H         56.03900000  *  152.58300000  * -42.52200000  *
   807       H         56.91000000  *  152.30800000  * -41.00400000  *
   808       C         57.83700000  *  153.75800000  * -42.29600000  *
   809       H         58.79800000  *  153.66600000  * -41.78600000  *
   810       H         58.01300000  *  153.90200000  * -43.36300000  *
   811       C         57.06800000  *  154.96000000  * -41.73400000  *
   812       H         56.11700000  *  155.04700000  * -42.26900000  *
   813       H         56.84300000  *  154.77000000  * -40.68100000  *
   814       N         57.84300000  *  156.22000000  * -41.86500000  *
   815       H         58.04800000  *  156.42700000  * -42.83100000  *
   816       H         57.32700000  *  157.00200000  * -41.48800000  *
   817       H         58.71700000  *  156.16400000  * -41.36400000  *
   818       C         55.61200000  *  149.84400000  * -42.92700000  *
   819       O         54.63800000  *  150.09100000  * -42.22200000  *
   820       N         55.49500000  *  149.42600000  * -44.18900000  *
   821       H         56.35000000  *  149.26300000  * -44.71300000  *
   822       C         54.20500000  *  149.26000000  * -44.85200000  *
   823       H         53.62600000  *  150.17500000  * -44.72500000  *
   824       C         54.41000000  *  148.98800000  * -46.34000000  *
   825       H         54.98900000  *  149.80200000  * -46.77700000  *
   826       H         55.00200000  *  148.07700000  * -46.45200000  *
   827       C         53.12600000  *  148.85300000  * -47.10800000  *
   828       C         52.23100000  *  149.92200000  * -47.18600000  *
   829       H         52.46300000  *  150.85600000  * -46.69900000  *
   830       C         51.01500000  *  149.79500000  * -47.88400000  *
   831       H         50.32500000  *  150.62800000  * -47.91800000  *
   832       C         50.69700000  *  148.60300000  * -48.50200000  *
   833       H         49.75200000  *  148.50200000  * -49.02000000  *
   834       C         51.58700000  *  147.52100000  * -48.43200000  *
   835       H         51.33500000  *  146.58300000  * -48.91200000  *
   836       C         52.79500000  *  147.65400000  * -47.73300000  *
   837       H         53.46700000  *  146.81000000  * -47.67200000  *
   838       C         53.37400000  *  148.12200000  * -44.22700000  *
   839       O         52.16900000  *  148.28300000  * -44.00900000  *
   840       N         54.01600000  *  146.98100000  * -43.96600000  *
   841       H         55.00900000  *  146.90600000  * -44.17900000  *
   842       C         53.33800000  *  145.83600000  * -43.34100000  *
   843       H         52.47600000  *  145.52800000  * -43.93400000  *
   844       C         54.29200000  *  144.65000000  * -43.17000000  *
   845       H         55.15800000  *  145.02700000  * -42.63600000  *
   846       H         53.80700000  *  143.89200000  * -42.54700000  *
   847       C         54.73100000  *  144.00400000  * -44.46100000  *
   848       H         53.84700000  *  143.61400000  * -44.95900000  *
   849       H         55.19200000  *  144.69400000  * -45.15000000  *
   850       S         55.79700000  *  142.58100000  * -44.15400000  *
   851       C         57.05400000  *  143.29200000  * -43.18800000  *
   852       H         56.67800000  *  143.65800000  * -42.23500000  *
   853       H         57.80700000  *  142.53400000  * -42.98200000  *
   854       H         57.44300000  *  144.07900000  * -43.80900000  *
   855       C         52.84400000  *  146.26000000  * -41.95900000  *
   856       O         51.68200000  *  146.03200000  * -41.61400000  *
   857       N         53.72600000  *  146.88400000  * -41.17900000  *
   858       H         54.70100000  *  146.95700000  * -41.45300000  *
   859       C         53.34300000  *  147.35100000  * -39.84600000  *
   860       H         53.03400000  *  146.49700000  * -39.23800000  *
   861       C         54.50500000  *  148.07700000  * -39.15700000  *
   862       H         54.94100000  *  148.81500000  * -39.83000000  *
   863       H         54.12400000  *  148.60600000  * -38.28400000  *
   864       C         55.58400000  *  147.11500000  * -38.68500000  *
   865       O         55.26200000  *  145.90900000  * -38.57600000  *
   866       O         56.73300000  *  147.55200000  * -38.41700000  *
   867       C         52.15000000  *  148.27900000  * -39.96300000  *
   868       O         51.20300000  *  148.18000000  * -39.18700000  *
   869       N         52.18300000  *  149.16200000  * -40.95500000  *
   870       H         53.01600000  *  149.23700000  * -41.51800000  *
   871       C         51.08600000  *  150.10000000  * -41.17300000  *
   872       H         50.93100000  *  150.67400000  * -40.25800000  *
   873       C         51.42800000  *  151.06800000  * -42.31500000  *
   874       H         51.45500000  *  150.53900000  * -43.26600000  *
   875       H         50.66000000  *  151.83800000  * -42.36800000  *
   876       H         52.39300000  *  151.53600000  * -42.12800000  *
   877       C         49.78900000  *  149.37000000  * -41.49900000  *
   878       O         48.71100000  *  149.83600000  * -41.15600000  *
   879       N         49.90500000  *  148.22900000  * -42.16400000  *
   880       H         50.83800000  *  147.88500000  * -42.38200000  *
   881       C         48.74000000  *  147.45400000  * -42.57500000  *
   882       H         47.85700000  *  148.08600000  * -42.62800000  *
   883       H         48.90600000  *  147.02300000  * -43.58600000  *
   884       H         48.52600000  *  146.61900000  * -41.88800000  *
   885       H         72.54500000  *  137.05800000  * -55.15200000  *
   886       C         72.38600000  *  137.90500000  * -54.47400000  *
   887       O         73.28300000  *  138.71900000  * -54.28600000  *
   888       N         71.20100000  *  138.01500000  * -53.89800000  *
   889       H         70.47300000  *  137.31400000  * -54.05700000  *
   890       C         70.96800000  *  139.10000000  * -52.94900000  *
   891       H         71.50000000  *  140.00600000  * -53.22900000  *
   892       C         69.47700000  *  139.40500000  * -52.82500000  *
   893       H         69.09300000  *  139.71900000  * -53.79200000  *
   894       H         68.93000000  *  138.50600000  * -52.53300000  *
   895       C         69.17800000  *  140.45400000  * -51.81200000  *
   896       N         69.23000000  *  140.42300000  * -50.45900000  *
   897       C         68.94700000  *  141.69100000  * -50.01400000  *
   898       H         68.96900000  *  142.01200000  * -48.98400000  *
   899       N         68.72400000  *  142.47200000  * -51.05500000  *
   900       H         68.47200000  *  143.44500000  * -51.00700000  *
   901       C         68.85400000  *  141.75000000  * -52.15500000  *
   902       H         68.77100000  *  142.12600000  * -53.16500000  *
   903       C         71.52100000  *  138.65700000  * -51.58300000  *
   904       O         72.28000000  *  139.38000000  * -50.94700000  *
   905       N         71.11400000  *  137.47100000  * -51.14500000  *
   906       H         70.37100000  *  137.01600000  * -51.66500000  *
   907       C         71.55500000  *  136.88000000  * -49.87700000  *
   908       H         71.18200000  *  135.84900000  * -49.87900000  *
   909       C         73.07600000  *  136.85300000  * -49.83700000  *
   910       H         73.53100000  *  137.83300000  * -49.86900000  *
   911       H         73.36600000  *  136.47900000  * -48.85100000  *
   912       C         73.64700000  *  135.85900000  * -50.81700000  *
   913       H         73.29800000  *  134.87100000  * -50.67200000  *
   914       H         73.21600000  *  136.10500000  * -51.78700000  *
   915       C         75.11700000  *  136.08400000  * -50.99900000  *
   916       H         75.61200000  *  135.95400000  * -50.03300000  *
   917       H         75.49500000  *  135.33200000  * -51.69500000  *
   918       N         75.35800000  *  137.42700000  * -51.50600000  *
   919       H         74.62100000  *  138.12700000  * -51.38200000  *
   920       C         76.54800000  *  137.85900000  * -51.89000000  *
   921       N         77.59300000  *  137.04400000  * -51.81500000  *
   922       H         77.44700000  *  136.21200000  * -51.26800000  *
   923       H         78.49900000  *  137.44300000  * -51.92100000  *
   924       N         76.69000000  *  139.09300000  * -52.35600000  *
   925       H         75.86000000  *  139.69200000  * -52.33800000  *
   926       H         77.56200000  *  139.47800000  * -52.67100000  *
   927       C         71.03700000  *  137.42400000  * -48.54200000  *
   928       O         71.18700000  *  136.76800000  * -47.50900000  *
   929       N         70.43700000  *  138.60400000  * -48.51600000  *
   930       H         70.32800000  *  139.16900000  * -49.34700000  *
   931       C         69.93700000  *  139.07600000  * -47.23100000  *
   932       H         69.76500000  *  138.24900000  * -46.54100000  *
   933       C         70.93500000  *  140.04200000  * -46.56200000  *
   934       H         71.90900000  *  139.56600000  * -46.50900000  *
   935       H         71.04400000  *  140.94300000  * -47.17900000  *
   936       C         70.51300000  *  140.42800000  * -45.14700000  *
   937       O         70.17200000  *  139.51500000  * -44.35500000  *
   938       O         70.51000000  *  141.64400000  * -44.82500000  *
   939       C         68.58700000  *  139.73400000  * -47.37800000  *
   940       O         68.35000000  *  140.81000000  * -46.83500000  *
   941       N         67.68700000  *  139.08300000  * -48.11000000  *
   942       H         67.94300000  *  138.20800000  * -48.54500000  *
   943       C         66.35900000  *  139.64900000  * -48.29900000  *
   944       H         66.47700000  *  140.66700000  * -48.65900000  *
   945       C         65.54600000  *  138.81300000  * -49.28800000  *
   946       H         65.58300000  *  137.78400000  * -48.94500000  *
   947       H         64.50600000  *  139.14000000  * -49.25500000  *
   948       C         66.02700000  *  138.85500000  * -50.73600000  *
   949       H         67.06400000  *  138.52800000  * -50.78200000  *
   950       C         65.17300000  *  137.91700000  * -51.58300000  *
   951       H         64.15900000  *  138.30500000  * -51.68800000  *
   952       H         65.63400000  *  137.80700000  * -52.55000000  *
   953       H         65.13400000  *  136.93500000  * -51.11000000  *
   954       C         65.92100000  *  140.27700000  * -51.26400000  *
   955       H         66.42000000  *  140.99600000  * -50.63300000  *
   956       H         66.44200000  *  140.27500000  * -52.20900000  *
   957       H         64.88200000  *  140.56100000  * -51.39700000  *
   958       C         65.59400000  *  139.73400000  * -46.98200000  *
   959       O         65.58600000  *  138.79200000  * -46.16600000  *
   960       N         64.95800000  *  140.85700000  * -46.74300000  *
   961       H         64.96900000  *  141.58900000  * -47.44100000  *
   962       C         64.17600000  *  141.07000000  * -45.54000000  *
   963       H         63.56800000  *  140.17800000  * -45.39000000  *
   964       C         65.06200000  *  141.24700000  * -44.28700000  *
   965       H         64.43100000  *  141.31800000  * -43.40100000  *
   966       H         65.66200000  *  140.34500000  * -44.16500000  *
   967       C         66.00000000  *  142.46200000  * -44.30800000  *
   968       H         66.41900000  *  142.58600000  * -45.30300000  *
   969       H         65.44300000  *  143.36000000  * -44.03800000  *
   970       C         67.14900000  *  142.22900000  * -43.32000000  *
   971       H         66.74500000  *  141.99000000  * -42.33300000  *
   972       H         67.72900000  *  141.37400000  * -43.67700000  *
   973       C         68.06000000  *  143.45600000  * -43.20700000  *
   974       H         68.15400000  *  143.92200000  * -44.19300000  *
   975       H         67.58600000  *  144.18300000  * -42.53800000  *
   976       N         69.40200000  *  143.06700000  * -42.70000000  *
   977       H         69.88100000  *  142.46700000  * -43.38500000  *
   978       H         69.97600000  *  143.88200000  * -42.52100000  *
   979       H         69.32200000  *  142.55500000  * -41.83100000  *
   980       C         63.26800000  *  142.23300000  * -45.83400000  *
   981       O         63.62700000  *  143.07700000  * -46.65500000  *
   982       N         62.11200000  *  142.30300000  * -45.18600000  *
   983       C         61.62600000  *  141.34600000  * -44.17100000  *
   984       H         62.10000000  *  141.53200000  * -43.20900000  *
   985       H         61.74500000  *  140.31100000  * -44.47600000  *
   986       C         60.16400000  *  141.66900000  * -44.09500000  *
   987       H         59.73700000  *  141.34900000  * -43.14300000  *
   988       H         59.63700000  *  141.20600000  * -44.93200000  *
   989       C         60.16000000  *  143.18900000  * -44.24800000  *
   990       H         60.51600000  *  143.64900000  * -43.32100000  *
   991       H         59.20200000  *  143.56500000  * -44.57400000  *
   992       C         61.14500000  *  143.38000000  * -45.40300000  *
   993       H         60.63400000  *  143.20500000  * -46.34500000  *
   994       C         61.77100000  *  144.77100000  * -45.44800000  *
   995       O         61.39200000  *  145.58400000  * -46.27300000  *
   996       N         62.73100000  *  145.09400000  * -44.56300000  *
   997       H         62.97900000  *  144.41100000  * -43.86300000  *
   998       C         63.43700000  *  146.40000000  * -44.54500000  *
   999       H         62.69600000  *  147.19900000  * -44.48000000  *
  1000       C         64.36500000  *  146.49700000  * -43.32100000  *
  1001       H         65.05600000  *  145.65300000  * -43.32500000  *
  1002       H         64.95600000  *  147.41100000  * -43.40900000  *
  1003       C         63.63000000  *  146.55500000  * -41.97700000  *
  1004       H         62.91400000  *  147.37700000  * -42.00200000  *
  1005       H         63.09100000  *  145.62400000  * -41.81800000  *
  1006       C         64.59800000  *  146.75700000  * -40.80900000  *
  1007       O         65.60700000  *  146.07600000  * -40.67800000  *
  1008       N         64.33600000  *  147.68400000  * -39.91400000  *
  1009       H         64.98500000  *  147.80800000  * -39.15100000  *
  1010       H         63.53400000  *  148.28800000  * -40.01100000  *
  1011       C         64.29600000  *  146.68400000  * -45.79600000  *
  1012       O         64.53700000  *  147.84000000  * -46.13700000  *
  1013       N         64.76200000  *  145.63500000  * -46.47800000  *
  1014       H         64.44800000  *  144.71800000  * -46.19200000  *
  1015       C         65.53800000  *  145.69600000  * -47.71700000  *
  1016       H         66.10000000  *  146.63200000  * -47.75300000  *
  1017       C         66.55300000  *  144.52200000  * -47.74500000  *
  1018       H         66.05900000  *  143.60000000  * -47.45000000  *
  1019       H         66.90500000  *  144.37600000  * -48.76400000  *
  1020       C         67.79900000  *  144.72700000  * -46.89400000  *
  1021       O         68.12000000  *  145.82100000  * -46.45500000  *
  1022       N         68.55700000  *  143.68200000  * -46.63100000  *
  1023       H         69.44200000  *  143.83600000  * -46.17700000  *
  1024       H         68.29900000  *  142.73100000  * -46.87800000  *
  1025       C         64.63300000  *  145.70600000  * -48.96800000  *
  1026       O         65.15500000  *  145.61800000  * -50.07700000  *
  1027       N         63.30000000  *  145.80300000  * -48.83400000  *
  1028       H         62.89500000  *  145.87300000  * -47.90900000  *
  1029       C         62.40600000  *  145.84500000  * -49.97900000  *
  1030       H         62.94700000  *  145.74800000  * -50.91900000  *
  1031       C         61.36900000  *  144.72100000  * -49.88900000  *
  1032       H         60.76900000  *  144.86100000  * -48.99200000  *
  1033       H         60.74400000  *  144.79800000  * -50.77200000  *
  1034       C         62.03600000  *  143.32400000  * -49.85900000  *
  1035       H         62.67100000  *  143.24000000  * -48.98800000  *
  1036       C         61.00200000  *  142.26000000  * -49.77100000  *
  1037       H         60.24600000  *  142.42800000  * -50.53400000  *
  1038       H         61.44700000  *  141.27100000  * -49.89000000  *
  1039       H         60.52000000  *  142.31900000  * -48.79800000  *
  1040       C         62.89500000  *  143.12600000  * -51.08400000  *
  1041       H         63.82900000  *  143.66800000  * -50.95600000  *
  1042       H         63.12900000  *  142.06900000  * -51.20900000  *
  1043       H         62.39300000  *  143.49200000  * -51.96600000  *
  1044       C         61.76300000  *  147.21800000  * -49.95200000  *
  1045       O         61.15000000  *  147.60200000  * -48.96600000  *
  1046       N         61.89700000  *  147.98800000  * -51.02600000  *
  1047       H         62.39200000  *  147.61800000  * -51.83200000  *
  1048       C         61.44700000  *  149.38100000  * -51.05900000  *
  1049       H         61.05800000  *  149.67800000  * -50.08800000  *
  1050       C         62.61700000  *  150.30300000  * -51.38600000  *
  1051       H         62.95600000  *  150.09400000  * -52.40200000  *
  1052       H         62.24700000  *  151.32700000  * -51.34400000  *
  1053       C         63.81000000  *  150.16600000  * -50.43500000  *
  1054       H         64.25400000  *  149.17800000  * -50.54000000  *
  1055       C         64.83200000  *  151.21100000  * -50.83600000  *
  1056       H         64.47200000  *  152.19600000  * -50.54600000  *
  1057       H         65.77100000  *  150.99200000  * -50.33900000  *
  1058       H         64.99200000  *  151.20900000  * -51.90800000  *
  1059       C         63.46000000  *  150.39600000  * -48.96600000  *
  1060       H         62.86700000  *  149.56200000  * -48.60100000  *
  1061       H         64.36800000  *  150.44900000  * -48.36800000  *
  1062       H         62.89900000  *  151.32200000  * -48.85000000  *
  1063       C         60.32500000  *  149.56500000  * -52.06300000  *
  1064       O         60.42300000  *  149.10500000  * -53.18900000  *
  1065       N         59.26800000  *  150.25600000  * -51.67700000  *
  1066       H         59.36500000  *  150.76300000  * -50.80000000  *
  1067       C         58.08300000  *  150.44700000  * -52.50800000  *
  1068       H         58.17300000  *  149.92400000  * -53.45700000  *
  1069       C         56.81900000  *  149.90600000  * -51.78600000  *
  1070       H         55.94300000  *  150.08700000  * -52.41500000  *
  1071       C         56.95000000  *  148.40400000  * -51.54300000  *
  1072       H         57.75300000  *  148.18300000  * -50.83300000  *
  1073       H         56.01300000  *  148.00400000  * -51.15200000  *
  1074       H         57.15800000  *  147.91500000  * -52.48900000  *
  1075       C         56.64700000  *  150.60600000  * -50.43300000  *
  1076       H         57.48200000  *  150.38000000  * -49.77500000  *
  1077       H         56.60500000  *  151.68300000  * -50.57600000  *
  1078       C         55.37000000  *  150.22200000  * -49.68600000  *
  1079       H         55.48900000  *  149.24800000  * -49.22200000  *
  1080       H         55.17000000  *  150.96500000  * -48.91000000  *
  1081       H         54.52900000  *  150.16800000  * -50.38500000  *
  1082       C         57.87200000  *  151.93000000  * -52.81700000  *
  1083       O         58.38200000  *  152.79400000  * -52.10000000  *
  1084       N         57.14900000  *  152.22000000  * -53.89700000  *
  1085       H         56.70500000  *  151.48200000  * -54.43300000  *
  1086       C         56.84100000  *  153.60200000  * -54.22700000  *
  1087       H         57.16800000  *  154.27800000  * -53.43100000  *
  1088       C         57.50400000  *  154.05300000  * -55.54100000  *
  1089       H         57.21800000  *  155.07000000  * -55.80500000  *
  1090       H         58.58200000  *  154.04400000  * -55.38800000  *
  1091       C         57.19300000  *  153.14600000  * -56.70100000  *
  1092       O         56.13500000  *  152.53500000  * -56.76400000  *
  1093       N         58.11500000  *  153.07200000  * -57.64100000  *
  1094       H         57.83300000  *  152.61700000  * -58.48600000  *
  1095       H         58.88600000  *  153.71500000  * -57.62100000  *
  1096       C         55.33100000  *  153.75800000  * -54.32100000  *
  1097       O         54.57600000  *  152.79900000  * -54.11400000  *
  1098       N         54.88500000  *  154.97100000  * -54.62100000  *
  1099       H         55.52100000  *  155.73600000  * -54.79200000  *
  1100       C         53.46400000  *  155.24700000  * -54.72300000  *
  1101       H         52.92700000  *  154.82600000  * -53.87200000  *
  1102       C         53.20900000  *  156.78000000  * -54.75500000  *
  1103       H         52.16900000  *  156.98000000  * -55.02600000  *
  1104       C         53.47800000  *  157.39700000  * -53.41000000  *
  1105       H         54.52100000  *  157.25500000  * -53.13000000  *
[...]
 1005  H   0.82967
 1006  C   1.06514   0.79232   0.74006   0.79821
 1007  O   1.87770   1.41024   1.59346   1.81462
 1008  N   1.52679   1.35915   1.38080   1.33104
 1009  H   0.65681
 1010  H   0.66273
 1011  C   1.08421   0.75896   0.78122   0.81374
 1012  O   1.88494   1.65987   1.31142   1.73624
 1013  N   1.55185   1.50553   1.20369   1.30225
 1014  H   0.66521
 1015  C   1.07282   0.94762   1.09575   0.82081
 1016  H   0.80401
 1017  C   1.07042   1.04591   1.08950   1.16737
 1018  H   0.83013
 1019  H   0.79554
 1020  C   1.05960   0.80891   0.76644   0.75167
 1021  O   1.87682   1.77516   1.39316   1.62755
 1022  N   1.53142   1.30296   1.19324   1.59451
 1023  H   0.66515
 1024  H   0.65361
 1025  C   1.08742   0.78506   0.72016   0.85271
 1026  O   1.87862   1.76668   1.60904   1.37928
 1027  N   1.54128   1.12607   1.66575   1.18364
 1028  H   0.65437
 1029  C   1.06991   0.96884   0.97967   0.97431
 1030  H   0.81068
 1031  C   1.06730   1.06428   0.99793   1.17257
 1032  H   0.83759
 1033  H   0.84796
 1034  C   1.04102   1.01208   0.94604   1.06247
 1035  H   0.85586
 1036  C   1.04921   1.12575   1.11845   1.17068
 1037  H   0.84482
 1038  H   0.84870
 1039  H   0.86580
 1040  C   1.05154   1.14142   1.17194   1.09884
 1041  H   0.84476
 1042  H   0.85736
 1043  H   0.84976
 1044  C   1.07684   0.74938   0.84297   0.75504
 1045  O   1.87174   1.53926   1.79792   1.44572
 1046  N   1.54644   1.55400   1.17174   1.24931
 1047  H   0.64544
 1048  C   1.06518   0.98878   0.82486   1.09935
 1049  H   0.81436
 1050  C   1.06474   1.02359   1.10505   1.12534
 1051  H   0.84709
 1052  H   0.83943
 1053  C   1.04802   0.96934   1.07061   0.96779
 1054  H   0.86635
 1055  C   1.05396   1.12611   1.12850   1.16553
 1056  H   0.84528
 1057  H   0.84910
 1058  H   0.86024
 1059  C   1.05471   1.17590   1.17708   1.04654
 1060  H   0.84092
 1061  H   0.85223
 1062  H   0.84694
 1063  C   1.07621   0.79789   0.74346   0.81729
 1064  O   1.86928   1.83106   1.62501   1.34168
 1065  N   1.54209   1.18992   1.47131   1.29593
 1066  H   0.64386
 1067  C   1.07594   0.88923   1.00565   1.04192
 1068  H   0.81005
 1069  C   1.06436   1.01558   0.99302   1.01948
 1070  H   0.84991
 1071  C   1.05462   1.18105   1.03397   1.17667
 1072  H   0.84356
 1073  H   0.84497
 1074  H   0.85314
 1075  C   1.05394   1.06894   1.11995   1.03164
 1076  H   0.84680
 1077  H   0.86130
 1078  C   1.05256   1.08977   1.15735   1.13206
 1079  H   0.84845
 1080  H   0.87760
 1081  H   0.84643
 1082  C   1.08658   0.74204   0.88827   0.74227
 1083  O   1.88672   1.56877   1.57695   1.55738
 1084  N   1.54299   1.50729   1.14376   1.33783
 1085  H   0.64308
 1086  C   1.06231   0.97269   0.88474   1.03681
 1087  H   0.80572
 1088  C   1.07263   1.18102   1.12861   1.02443
 1089  H   0.80914
 1090  H   0.80463
 1091  C   1.06068   0.76192   0.77086   0.82333
 1092  O   1.88015   1.35519   1.56878   1.83558
 1093  N   1.53410   1.29744   1.49476   1.27225
 1094  H   0.67145
 1095  H   0.66529
 1096  C   1.08291   0.88473   0.75985   0.71396
 1097  O   1.88786   1.65349   1.46776   1.58765
 1098  N   1.54020   1.14561   1.19740   1.67236
 1099  H   0.66354
 1100  C   1.08562   0.83662   1.05859   1.08311
 1101  H   0.80357
 1102  C   1.08431   0.99193   0.86648   0.88971
 1103  H   0.84632
 1104  C   1.05380   1.18336   1.18055   1.05447
 1105  H   0.84191
 1106  H   0.82391
 1107  H   0.82928
 1108  O   1.84877   1.59249   1.82299   1.34552
 1109  H   0.64219
 1110  C   1.07320   0.78899   0.75546   0.82395
 1111  O   1.87786   1.27977   1.68893   1.84874
 1112  N   1.53328   1.19329   1.53450   1.21102
 1113  H   0.66735
 1114  C   1.05710   1.15381   1.13347   0.89297
 1115  H   0.83534
 1116  H   0.83767
 1117  H   0.83539
 1118  H   0.83944
 1119  C   1.10509   0.75488   0.73534   0.91352
 1120  O   1.88312   1.71078   1.59679   1.48276
 1121  N   1.54487   1.42787   1.34579   1.20810
 1122  H   0.65349
 1123  C   1.08072   0.93114   1.08440   0.93152
 1124  H   0.80973
 1125  C   1.07315   1.07906   0.95379   0.98249
 1126  H   0.84390
 1127  C   1.05809   1.18718   1.08395   1.12929
 1128  H   0.84349
 1129  H   0.84837
 1130  H   0.85198
 1131  C   1.05415   1.07589   1.13447   1.01865
 1132  H   0.85354
 1133  H   0.85487
 1134  C   1.04918   1.14378   1.15104   1.09047
 1135  H   0.84979
 1136  H   0.85986
 1137  H   0.84948
 1138  C   1.07226   0.84164   0.73672   0.77778
 1139  O   1.87774   1.89037   1.52086   1.39066
 1140  N   1.54475   1.10301   1.52641   1.33540
 1141  H   0.63251
 1142  C   1.06987   0.84606   1.05353   1.03802
 1143  H   0.81788
 1144  C   1.06008   1.09260   1.04643   1.09617
 1145  H   0.83623
 1146  H   0.84638
 1147  C   1.05106   1.08570   1.04430   1.07806
 1148  H   0.84970
 1149  H   0.84463
 1150  C   1.05938   1.08237   1.05515   1.09794
 1151  H   0.84193
 1152  H   0.83221
 1153  C   1.07897   1.02193   0.99746   1.07434
 1154  H   0.81103
 1155  H   0.83327
 1156  N   1.45911   1.23105   1.22851   1.25605
 1157  H   0.69622
 1158  H   0.69964
 1159  H   0.68603
 1160  C   1.07822   0.77993   0.75055   0.82537
 1161  O   1.88112   1.77255   1.69299   1.29069
 1162  N   1.54482   1.32875   1.42529   1.23091
 1163  H   0.64044
 1164  C   1.07018   0.91857   0.95773   1.02895
 1165  H   0.83210
 1166  C   1.06275   1.10009   1.01928   1.13289
 1167  H   0.83523
 1168  H   0.84471
 1169  C   1.05374   1.07064   0.96114   0.96346
 1170  H   0.85979
 1171  C   1.06222   1.16612   1.13935   1.09223
 1172  H   0.85185
 1173  H   0.84925
 1174  H   0.85269
 1175  C   1.05740   1.18270   1.13696   1.08883
 1176  H   0.85353
 1177  H   0.84834
 1178  H   0.85414
 1179  C   1.08484   0.79143   0.79903   0.75884
 1180  O   1.88077   1.63429   1.59922   1.53903
 1181  N   1.54393   1.36556   1.43939   1.15962
 1182  H   0.64646
 1183  C   1.06746   0.91208   0.92729   1.05027
 1184  H   0.82673
 1185  C   1.05940   1.16533   1.08554   1.15404
 1186  H   0.82240
 1187  H   0.83330
 1188  H   0.82756
 1189  C   1.08868   0.78587   0.78550   0.74653
 1190  O   1.87203   1.83911   1.36119   1.60162
 1191  N   1.54650   1.17380   1.31651   1.49856
 1192  H   0.67194
 1193  C   1.07516   0.88051   1.07882   0.93194
 1194  H   0.81508
 1195  C   1.07950   1.14528   1.17618   1.01672
 1196  H   0.80971
 1197  H   0.83229
 1198  C   1.07090   0.73713   0.73459   0.69195
 1199  O   1.88746   1.77760   1.43394   1.63427
 1200  O   1.87150   1.70790   1.50585   1.78568
 1201  C   1.08993   0.81760   0.79475   0.74857
 1202  O   1.88732   1.28711   1.80208   1.57353
 1203  N   1.56622   1.29354   1.16867   1.54021
 1204  H   0.68050
 1205  C   1.07978   1.02163   0.91753   0.95288
 1206  H   0.83921
 1207  C   1.05566   1.07724   1.20221   0.96315
 1208  H   0.81440
 1209  H   0.81963
 1210  C   1.07478   0.97414   0.97727   0.96992
 1211  C   1.08997   1.04126   1.04135   1.01443
 1212  H   0.83959
 1213  C   1.08860   0.98545   1.06167   1.01069
 1214  H   0.84247
 1215  C   1.08740   1.05974   0.99175   1.03255
 1216  H   0.84790
 1217  C   1.08950   1.03695   1.03614   0.98863
 1218  H   0.83159
 1219  C   1.08733   0.98654   1.06438   1.02382
 1220  H   0.83843
 1221  C   1.08884   0.80268   0.77361   0.76388
 1222  O   1.88521   1.44440   1.56006   1.71455
 1223  N   1.53941   1.41506   1.43679   1.13581
 1224  H   0.68278
 1225  C   1.06844   0.98723   1.06766   0.98195
 1226  H   0.81290
 1227  H   0.80695
 1228  C   1.07959   0.82851   0.77872   0.70574
 1229  O   1.87667   1.84138   1.32605   1.61387
 1230  N   1.55755   1.29746   1.23335   1.44594
 1231  H   0.67269
 1232  C   1.07741   0.89830   1.03269   0.96756
 1233  H   0.83431
 1234  C   1.06793   1.11246   0.95056   1.17553
 1235  H   0.83702
 1236  H   0.83046
 1237  C   1.05171   1.03260   0.96066   1.00879
 1238  H   0.86304
 1239  C   1.05604   1.16741   1.06710   1.16556
 1240  H   0.85822
 1241  H   0.84437
 1242  H   0.85465
 1243  C   1.05564   1.17048   1.18833   1.04766
 1244  H   0.84193
 1245  H   0.84225
 1246  H   0.85840
 1247  C   1.09535   0.85750   0.76503   0.72445
 1248  O   1.88109   1.32566   1.78566   1.59491
 1249  N   1.58229   1.28187   1.23399   1.52141
 1250  H   0.66045
 1251  C   1.06830   0.96393   0.99707   0.95499
 1252  H   0.83643
 1253  C   1.05863   1.13998   1.09755   1.17427
 1254  H   0.84401
 1255  H   0.81069
 1256  H   0.81027
 1257  C   1.07600   0.83426   0.75186   0.78129
 1258  O   1.88388   1.49989   1.59998   1.64959
 1259  N   1.54296   1.31121   1.51240   1.14420
 1260  H   0.67603
 1261  C   1.06248   0.92439   1.14574   1.10582
 1262  H   0.82650
 1263  H   0.82973
 1264  H   0.83906
 1265  H   0.84159
 1266  C   1.10462   0.72496   0.79420   0.87716
 1267  O   1.88383   1.53321   1.36203   1.88326
 1268  N   1.54275   1.48719   1.35115   1.14837
 1269  H   0.67719
 1270  C   1.07285   1.11769   0.96748   0.82227
 1271  H   0.80341
 1272  C   1.05777   1.09082   1.02702   1.14962
 1273  H   0.83580
 1274  H   0.82223
 1275  C   1.06419   0.97696   0.94919   0.96749
 1276  C   1.08264   1.01993   0.99363   1.05808
 1277  H   0.84046
 1278  C   1.08212   1.04744   1.02787   0.99880
 1279  H   0.84579
 1280  C   1.08108   1.00752   1.05593   1.02598
 1281  H   0.85036
 1282  C   1.08048   1.02483   1.00365   1.05519
 1283  H   0.85478
 1284  C   1.08312   1.05830   1.02560   0.99534
 1285  H   0.83972
 1286  C   1.08053   0.76603   0.78597   0.79872
 1287  O   1.88386   1.53926   1.68034   1.53377
 1288  N   1.53672   1.17659   1.34781   1.43187
 1289  H   0.67181
 1290  C   1.05816   1.14208   0.97724   0.99774
 1291  H   0.81379
 1292  H   0.78709
 1293  C   1.07327   0.78242   0.75119   0.80196
 1294  O   1.87218   1.55492   1.39848   1.84131
 1295  N   1.53484   1.40654   1.37191   1.17605
 1296  H   0.64845
 1297  C   1.07481   1.00354   1.20104   0.87824
 1298  H   0.80887
 1299  H   0.79351
 1300  C   1.08127   0.77439   0.74553   0.80730
 1301  O   1.88285   1.52203   1.53289   1.73167
 1302  N   1.56531   1.44466   1.16715   1.26717
 1303  C   1.07056   1.06979   0.86713   1.05591
 1304  H   0.83598
 1305  H   0.83865
 1306  C   1.05732   1.04575   1.13998   1.05927
 1307  H   0.84675
 1308  H   0.80367
 1309  C   1.06104   1.08283   0.98331   1.17206
 1310  H   0.83524
 1311  H   0.81972
 1312  C   1.07344   1.05217   1.00109   0.86774
 1313  H   0.81338
 1314  C   1.08830   0.76347   0.76811   0.82865
 1315  O   1.88393   1.42716   1.43552   1.88342
 1316  N   1.54314   1.40351   1.48391   1.11757
 1317  H   0.64361
 1318  C   1.08219   1.04958   1.11419   0.89126
 1319  H   0.80077
 1320  H   0.78745
 1321  C   1.08833   0.82551   0.73019   0.77830
 1322  O   1.88490   1.70332   1.72962   1.32960
 1323  N   1.55109   1.23214   1.41120   1.34488
 1324  H   0.68808
 1325  C   1.07568   0.86036   1.06408   0.97842
 1326  H   0.82193
 1327  C   1.05962   1.16891   1.07549   0.97646
 1328  H   0.83474
 1329  H   0.83912
 1330  C   1.05816   1.13855   1.07487   1.02374
 1331  H   0.82455
 1332  H   0.87162
 1333  C   1.06376   1.08741   1.09995   0.78145
 1334  H   0.85050
 1335  H   0.81927
 1336  N   1.53281   1.62702   1.28988   1.09338
 1337  H   0.64878
 1338  C   0.97600   0.83628   0.80287   0.79450
 1339  N   1.50147   1.56331   1.25850   1.24812
 1340  H   0.67466
 1341  H   0.62638
 1342  N   1.50407   1.55700   1.35354   1.14118
 1343  H   0.64454
 1344  H   0.63723
 1345  C   1.08278   0.75726   0.77363   0.84410
 1346  O   1.88769   1.48014   1.64669   1.56769
 1347  N   1.54258   1.54556   1.19722   1.23924
 1348  H   0.67300
 1349  C   1.08977   1.00069   1.01012   0.92104
 1350  H   0.80195
 1351  C   1.08630   0.93177   0.92714   0.87809
 1352  H   0.85091
 1353  C   1.05852   1.09805   1.12824   1.20524
 1354  H   0.82404
 1355  H   0.83283
 1356  H   0.83132
 1357  O   1.84297   1.58295   1.64071   1.56918
 1358  H   0.62619
 1359  C   1.07906   0.81338   0.79151   0.76292
 1360  O   1.88744   1.53710   1.79126   1.36946
 1361  N   1.55262   1.32717   1.29593   1.37688
 1362  H   0.65272
 1363  C   1.07403   0.98865   0.92715   0.99337
 1364  H   0.81721
 1365  C   1.05786   1.09546   1.06851   1.08731
 1366  H   0.84102
 1367  H   0.82668
 1368  C   1.06126   0.97219   0.97526   1.05930
 1369  C   1.08289   0.97258   1.07890   0.98971
 1370  H   0.84452
 1371  C   1.08078   1.07841   0.99576   1.02219
 1372  H   0.81322
 1373  C   1.06655   0.82755   0.89522   0.90992
 1374  O   1.84136   1.46791   1.53981   1.69576
 1375  H   0.63555
 1376  C   1.07369   0.99035   1.09249   1.07117
 1377  H   0.84714
 1378  C   1.08179   1.06401   0.99857   0.99388
 1379  H   0.85878
 1380  C   1.08203   0.77634   0.73406   0.82105
 1381  O   1.88476   1.39045   1.55597   1.82931
 1382  N   1.55036   1.20053   1.60176   1.14816
 1383  H   0.66115
 1384  C   1.08717   1.11706   1.03454   0.83744
 1385  H   0.82127
 1386  C   1.08253   0.83219   0.89085   1.00026
 1387  H   0.86861
 1388  C   1.05718   1.09865   1.14106   1.18954
 1389  H   0.83085
 1390  H   0.84586
 1391  H   0.84151
 1392  O   1.84701   1.32393   1.76631   1.66682
 1393  H   0.61654
 1394  C   1.08207   0.82828   0.76382   0.79218
 1395  O   1.88734   1.29183   1.70622   1.67727
 1396  N   1.54293   1.22803   1.27093   1.47584
 1397  H   0.64939
 1398  C   1.07063   0.98409   1.04045   1.07621
 1399  H   0.84400
 1400  H   0.80880
 1401  C   1.07031   0.85079   0.72021   0.75160
 1402  O   1.88499   1.70084   1.45745   1.55936
 1403  N   1.55352   1.14756   1.51370   1.33245
 1404  H   0.68021
 1405  C   1.07072   0.82922   0.98754   1.12929
 1406  H   0.81411
 1407  C   1.05319   1.16386   0.98894   1.05131
 1408  H   0.84014
 1409  H   0.83552
 1410  C   1.05983   1.20555   1.01206   1.13864
 1411  H   0.84348
 1412  H   0.82607
 1413  C   1.06668   0.72279   0.72054   0.72903
 1414  O   1.88757   1.47033   1.82244   1.63750
 1415  O   1.88489   1.51948   1.58584   1.81482
 1416  C   1.08683   0.77111   0.86263   0.75456
 1417  O   1.88731   1.64854   1.65314   1.40975
 1418  N   1.54581   1.31025   1.19188   1.47837
 1419  H   0.65305
 1420  C   1.07215   1.06280   0.88128   1.00765
 1421  H   0.84386
 1422  C   1.05448   1.01858   1.03219   0.97073
 1423  H   0.83593
 1424  C   1.05593   1.17744   1.04888   1.19329
 1425  H   0.84553
 1426  H   0.83582
 1427  H   0.83788
 1428  C   1.05457   1.18133   1.16769   1.06158
 1429  H   0.84062
 1430  H   0.83984
 1431  H   0.85214
 1432  C   1.07565   0.77103   0.73158   0.84207
 1433  O   1.88365   1.36358   1.63740   1.76948
 1434  N   1.53829   1.27322   1.47283   1.21101
 1435  H   0.66903
 1436  C   1.07705   1.00721   1.05471   0.86802
 1437  H   0.82287
 1438  C   1.06064   1.02675   1.01607   0.97674
 1439  H   0.84069
 1440  C   1.05419   1.18418   1.09818   1.12133
 1441  H   0.84080
 1442  H   0.84086
 1443  H   0.85074
 1444  C   1.05736   1.18962   1.16660   1.05263
 1445  H   0.84642
 1446  H   0.83558
 1447  H   0.83880
 1448  C   1.08144   0.80654   0.78639   0.75136
 1449  O   1.88317   1.81149   1.47321   1.46037
 1450  N   1.53604   1.23681   1.43126   1.31663
 1451  H   0.66440
 1452  C   1.07957   0.90451   0.96837   1.14820
 1453  H   0.80527
 1454  C   1.07977   0.93493   0.82433   0.98348
 1455  H   0.86589
 1456  C   1.05747   1.09529   1.13597   1.19611
 1457  H   0.82497
 1458  H   0.82213
 1459  H   0.84135
 1460  O   1.84754   1.47794   1.49398   1.78193
 1461  H   0.64855
 1462  C   1.07072   0.75393   0.82640   0.79812
 1463  O   1.88059   1.50682   1.88249   1.36392
 1464  N   1.53717   1.55059   1.12175   1.29443
 1465  H   0.65726
 1466  C   1.05405   1.16773   0.87313   1.13564
 1467  H   0.83024
 1468  H   0.83712
 1469  H   0.85137
 1470  H   0.82723
 1471  C   1.10849   0.72192   0.77562   0.90302
 1472  O   1.87917   1.50028   1.39726   1.89104
 1473  N   1.54807   1.50770   1.35866   1.13683
 1474  H   0.67058
 1475  C   1.07820   1.08321   1.04085   0.80204
 1476  H   0.80371
 1477  C   1.05901   1.13420   0.99952   1.10163
 1478  H   0.81858
 1479  H   0.82220
 1480  C   1.06595   0.97590   0.99310   1.00560
 1481  C   1.08232   0.99077   1.02470   1.00446
 1482  H   0.83767
 1483  C   1.07635   1.10513   1.04992   1.06633
 1484  H   0.82037
 1485  C   1.07257   0.88649   0.88192   0.87964
 1486  O   1.83868   1.35505   1.61296   1.73276
 1487  H   0.61909
 1488  C   1.07845   0.98854   1.10006   1.09721
 1489  H   0.82121
 1490  C   1.08818   1.07866   0.97865   0.96878
 1491  H   0.83495
 1492  C   1.08084   0.79994   0.76890   0.79200
 1493  O   1.88630   1.81382   1.69955   1.28034
 1494  N   1.53470   1.25582   1.50886   1.18462
 1495  H   0.67091
 1496  C   1.06143   0.92033   1.08959   1.16682
 1497  H   0.83432
 1498  H   0.82968
 1499  H   0.83849
 1500  H   0.82484
 1501  C   1.10804   0.78633   0.88373   0.71616
 1502  O   1.88011   1.43049   1.87064   1.50912
 1503  N   1.55068   1.37511   1.18533   1.44524
 1504  H   0.64441
 1505  C   1.07866   0.96571   0.86325   1.12906
 1506  H   0.81495
 1507  C   1.05976   0.97997   0.99665   1.07644
 1508  H   0.84638
 1509  C   1.05207   1.15824   1.06268   1.17608
 1510  H   0.84449
 1511  H   0.84463
 1512  H   0.84172
 1513  C   1.04784   0.99984   1.12969   1.08497
 1514  H   0.86679
 1515  H   0.85353
 1516  C   1.04903   1.11618   1.12954   1.14932
 1517  H   0.85879
 1518  H   0.85728
 1519  H   0.84120
 1520  C   1.07242   0.85960   0.73796   0.75026
 1521  O   1.87627   1.57603   1.55600   1.67380
 1522  N   1.54217   1.18498   1.41742   1.37463
 1523  H   0.66202
 1524  C   1.07135   0.87895   1.16328   1.10828
 1525  H   0.84317
 1526  H   0.83224
 1527  H   0.83417
 1528  H   0.82764
 1529  C   1.10757   0.84809   0.73310   0.82095
 1530  O   1.88534   1.81638   1.62622   1.36666
 1531  N   1.53782   1.25349   1.40312   1.30538
 1532  H   0.64784
 1533  C   1.05912   0.89151   1.04091   1.02424
 1534  H   0.81935
 1535  C   1.06065   1.03223   1.11459   1.11475
 1536  H   0.82476
 1537  H   0.84744
 1538  C   1.04447   0.99030   0.96336   1.05973
 1539  H   0.88010
 1540  C   1.05451   1.16277   1.06799   1.18073
 1541  H   0.83832
 1542  H   0.84798
 1543  H   0.85376
 1544  C   1.05257   1.12364   1.17216   1.10877
 1545  H   0.85775
 1546  H   0.84738
 1547  H   0.84113
 1548  C   1.07854   0.72955   0.86455   0.77482
 1549  O   1.88183   1.57607   1.45136   1.73540
 1550  N   1.54009   1.57247   1.21279   1.19379
 1551  H   0.66092
 1552  C   1.07181   1.02030   0.93475   0.96131
 1553  H   0.81174
 1554  C   1.05663   1.17055   1.07918   0.99200
 1555  H   0.82432
 1556  H   0.82666
 1557  C   1.05681   1.13004   1.08805   1.03634
 1558  H   0.85319
 1559  H   0.82408
 1560  C   1.06363   1.15816   0.94489   0.90200
 1561  H   0.81627
 1562  H   0.83557
 1563  N   1.52415   1.16146   1.42473   1.39817
 1564  H   0.63974
 1565  C   0.99144   0.79129   0.81237   0.81839
 1566  N   1.51720   1.11638   1.46805   1.48664
 1567  H   0.65574
 1568  H   0.63929
 1569  N   1.50867   1.25121   1.39991   1.41138
 1570  H   0.64200
 1571  H   0.64047
 1572  C   1.08191   0.87221   0.77206   0.74553
 1573  O   1.88762   1.60737   1.59880   1.52683
 1574  N   1.53979   1.17456   1.27162   1.51600
 1575  H   0.65729
 1576  C   1.07432   0.85682   1.08625   1.03846
 1577  H   0.82153
 1578  C   1.06143   1.16486   1.09807   0.98393
 1579  H   0.84197
 1580  H   0.83779
 1581  C   1.04762   1.08142   0.95998   0.94848
 1582  H   0.86905
 1583  C   1.05591   1.17116   1.16303   1.07744
 1584  H   0.85504
 1585  H   0.86129
 1586  H   0.84652
 1587  C   1.05675   1.15780   1.09283   1.15811
 1588  H   0.85048
 1589  H   0.86096
 1590  H   0.84647
 1591  C   1.08296   0.71479   0.76178   0.70282
 1592  O   1.88400   1.46754   1.86962   1.62342
 1593  O   1.88765   1.54714   1.59375   1.80291

 **********************
 *                    *
 * JOB ENDED NORMALLY *
 *                    *
 **********************



 TOTAL JOB TIME:          2970.50 SECONDS

 == MOPAC DONE ==
