 *******************************************************************************
 **                                                                           **
 **                              MOPAC v23.2.2                                **
 **                                                                           **
 *******************************************************************************
 **          Digital Object Identifier (DOI): 10.5281/zenodo.6511958          **
 **    Visit the DOI location for information on how to cite this program.    **
 *******************************************************************************

                              PM7 CALCULATION RESULTS

 *******************************************************************************
 *  CALCULATION DONE: (MAX THREADS = 24)             Thu Jan 22 19:37:50 2026  *
 *  PM7        - The PM7 Hamiltonian to be used
 *
 *
 *
 *                 CHARGE ON SYSTEM = +2
 *
 *
 *
 *  EPS=78.4   - USE ANDREAS KLAMT'S COSMO IMPLICIT SOLVATION MODEL
 *  XYZ        - CARTESIAN COORDINATE SYSTEM TO BE USED
 *  1SCF       - DO 1 SCF AND THEN STOP 
 *  T=         - A TIME OF 172800.0 SECONDS REQUESTED
 *  DUMP=N     - RESTART FILE WRITTEN EVERY 7200.0 SECONDS REQUESTED
 *******************************************************************************
PM7 1SCF XYZ CHARGE=2 EPS=78.4


   ATOM   CHEMICAL          X               Y               Z
  NUMBER   SYMBOL      (ANGSTROMS)     (ANGSTROMS)     (ANGSTROMS)

     1       H         71.69100000  *  165.23700000  * -45.36000000  *
     2       C         70.72700000  *  165.64400000  * -45.02500000  *
     3       O         70.67100000  *  166.69300000  * -44.40000000  *
     4       N         69.64800000  *  164.94600000  * -45.35400000  *
     5       H         69.74300000  *  164.08600000  * -45.86500000  *
     6       C         68.31800000  *  165.37700000  * -44.95100000  *
     7       H         68.30400000  *  166.44500000  * -44.75000000  *
     8       C         67.27900000  *  165.08100000  * -46.05800000  *
     9       H         67.27200000  *  164.02200000  * -46.29800000  *
    10       C         65.89200000  *  165.46600000  * -45.59200000  *
    11       H         65.46400000  *  166.22900000  * -46.24500000  *
    12       H         65.23700000  *  164.60600000  * -45.62700000  *
    13       H         65.87600000  *  165.89500000  * -44.58400000  *
    14       C         67.63700000  *  165.85600000  * -47.31700000  *
    15       H         68.59400000  *  165.52900000  * -47.70800000  *
    16       H         66.87900000  *  165.66900000  * -48.07700000  *
    17       H         67.68800000  *  166.92100000  * -47.10100000  *
    18       C         67.91500000  *  164.66400000  * -43.65700000  *
    19       O         67.55300000  *  165.30600000  * -42.67600000  *
    20       N         67.98400000  *  163.33800000  * -43.65800000  *
    21       H         68.28400000  *  162.85200000  * -44.48600000  *
    22       C         67.62300000  *  162.54400000  * -42.48700000  *
    23       H         67.90600000  *  163.07600000  * -41.58100000  *
    24       C         66.12800000  *  162.23500000  * -42.45900000  *
    25       H         65.92600000  *  161.47400000  * -43.20900000  *
    26       H         65.88500000  *  161.80700000  * -41.48800000  *
    27       C         65.21300000  *  163.39800000  * -42.74000000  *
    28       H         65.33100000  *  164.15700000  * -41.96400000  *
    29       H         65.45900000  *  163.81400000  * -43.69700000  *
    30       C         63.76600000  *  162.97200000  * -42.82400000  *
    31       O         63.44700000  *  162.11400000  * -43.67900000  *
    32       O         62.94800000  *  163.49400000  * -42.03400000  *
    33       C         68.34700000  *  161.22200000  * -42.57700000  *
    34       O         68.73000000  *  160.78800000  * -43.66100000  *
    35       N         68.52400000  *  160.57500000  * -41.43500000  *
    36       H         68.03000000  *  160.89100000  * -40.60600000  *
    37       C         69.17300000  *  159.28200000  * -41.42100000  *
    38       H         69.95100000  *  159.22100000  * -42.17800000  *
    39       C         69.75600000  *  159.01000000  * -40.03200000  *
    40       H         70.21900000  *  159.94300000  * -39.71800000  *
    41       H         68.96300000  *  158.79100000  * -39.31600000  *
    42       C         70.79800000  *  157.89600000  * -39.98300000  *
    43       H         70.31100000  *  156.94100000  * -40.17400000  *
    44       H         71.53800000  *  158.07300000  * -40.76900000  *
    45       C         71.50100000  *  157.83200000  * -38.61800000  *
    46       H         70.74900000  *  157.59000000  * -37.86000000  *
    47       H         72.23100000  *  157.01800000  * -38.63800000  *
    48       C         72.18600000  *  159.16200000  * -38.26900000  *
    49       H         72.83200000  *  159.42500000  * -39.10900000  *
    50       H         71.41200000  *  159.93100000  * -38.15600000  *
    51       N         73.00000000  *  159.10500000  * -37.02500000  *
    52       H         73.70000000  *  158.37000000  * -37.07400000  *
    53       H         73.43800000  *  159.98800000  * -36.79300000  *
    54       H         72.39100000  *  158.85400000  * -36.25100000  *
    55       C         68.06200000  *  158.28700000  * -41.74800000  *
    56       O         67.16300000  *  158.08100000  * -40.94600000  *
    57       N         68.04700000  *  157.73000000  * -42.96300000  *
    58       H         68.85200000  *  157.88100000  * -43.55100000  *
    59       C         67.03700000  *  156.74400000  * -43.40500000  *
    60       H         66.05900000  *  157.22800000  * -43.41600000  *
    61       C         67.33600000  *  156.22700000  * -44.83400000  *
    62       H         68.41400000  *  156.12200000  * -44.94900000  *
    63       C         66.69800000  *  154.86200000  * -45.12800000  *
    64       H         65.62200000  *  154.90700000  * -44.95300000  *
    65       H         66.88000000  *  154.59000000  * -46.15900000  *
    66       H         67.13800000  *  154.07600000  * -44.51400000  *
    67       C         66.82700000  *  157.25600000  * -45.85500000  *
    68       H         65.73700000  *  157.24100000  * -45.88200000  *
    69       H         67.13400000  *  158.23600000  * -45.50600000  *
    70       C         67.36800000  *  157.05700000  * -47.27900000  *
    71       H         66.96700000  *  156.15000000  * -47.72200000  *
    72       H         67.07400000  *  157.89800000  * -47.90300000  *
    73       H         68.45400000  *  156.99700000  * -47.26400000  *
    74       C         66.93500000  *  155.58600000  * -42.41400000  *
    75       O         65.83900000  *  155.22200000  * -41.98200000  *
    76       N         68.08100000  *  154.99700000  * -42.07700000  *
    77       H         68.95400000  *  155.35500000  * -42.44800000  *
    78       C         68.12500000  *  153.80000000  * -41.25900000  *
    79       H         67.66400000  *  154.01200000  * -40.29300000  *
    80       H         67.55400000  *  153.01100000  * -41.75000000  *
    81       C         69.53200000  *  153.28400000  * -41.01400000  *
    82       O         70.53300000  *  153.78000000  * -41.53900000  *
    83       N         69.57300000  *  152.25100000  * -40.18800000  *
    84       H         68.69300000  *  151.88800000  * -39.84900000  *
    85       C         70.78200000  *  151.66700000  * -39.63100000  *
    86       H         71.62700000  *  152.33500000  * -39.80100000  *
    87       C         70.58100000  *  151.52700000  * -38.11300000  *
    88       H         69.75000000  *  150.85000000  * -37.91200000  *
    89       H         71.49100000  *  151.11500000  * -37.69700000  *
    90       C         70.32100000  *  152.88200000  * -37.42800000  *
    91       H         71.13500000  *  153.56500000  * -37.68500000  *
    92       H         69.39400000  *  153.31600000  * -37.80900000  *
    93       C         70.20500000  *  152.75900000  * -35.90000000  *
    94       O         69.34300000  *  151.99500000  * -35.40700000  *
    95       O         70.94000000  *  153.47300000  * -35.17800000  *
    96       C         71.05500000  *  150.34400000  * -40.36500000  *
    97       O         70.39500000  *  149.33100000  * -40.12200000  *
    98       N         71.92200000  *  150.40400000  * -41.38100000  *
    99       H         72.49900000  *  151.23000000  * -41.48400000  *
   100       C         71.99000000  *  149.40800000  * -42.45600000  *
   101       H         70.97700000  *  149.10200000  * -42.72200000  *
   102       H         72.43100000  *  149.88500000  * -43.33000000  *
   103       C         72.80100000  *  148.14700000  * -42.14500000  *
   104       O         73.29700000  *  147.93800000  * -41.03900000  *
   105       N         72.97500000  *  147.31000000  * -43.17300000  *
   106       H         72.52400000  *  147.52600000  * -44.05100000  *
   107       C         73.79300000  *  146.08200000  * -43.13600000  *
   108       H         73.44800000  *  145.45700000  * -42.31200000  *
   109       C         73.64300000  *  145.27300000  * -44.43600000  *
   110       H         74.39300000  *  144.48200000  * -44.46500000  *
   111       C         72.26200000  *  144.63300000  * -44.53000000  *
   112       H         71.49000000  *  145.39700000  * -44.62400000  *
   113       H         72.22900000  *  143.97200000  * -45.39600000  *
   114       H         72.08700000  *  144.02900000  * -43.64000000  *
   115       O         73.81700000  *  146.12300000  * -45.54400000  *
   116       H         73.40900000  *  145.68600000  * -46.32200000  *
   117       C         75.27800000  *  146.34500000  * -42.89100000  *
   118       O         75.87400000  *  145.61800000  * -42.10600000  *
   119       N         75.86100000  *  147.37000000  * -43.53100000  *
   120       H         75.29000000  *  147.84500000  * -44.21200000  *
   121       C         77.31200000  *  147.65100000  * -43.53600000  *
   122       H         77.78700000  *  147.08400000  * -42.73500000  *
   123       C         77.92400000  *  147.17500000  * -44.86800000  *
   124       H         77.62100000  *  147.86700000  * -45.65300000  *
   125       H         79.01200000  *  147.22000000  * -44.79400000  *
   126       C         77.55200000  *  145.76700000  * -45.28700000  *
   127       C         77.77400000  *  144.69400000  * -44.40500000  *
   128       H         78.22400000  *  144.86800000  * -43.43500000  *
   129       C         77.38400000  *  143.39700000  * -44.77100000  *
   130       H         77.53400000  *  142.58000000  * -44.08400000  *
   131       C         76.80300000  *  143.16000000  * -46.03300000  *
   132       O         76.50000000  *  141.88900000  * -46.40000000  *
   133       H         77.09000000  *  141.28400000  * -45.92300000  *
   134       C         76.58100000  *  144.23500000  * -46.91700000  *
   135       H         76.12000000  *  144.06100000  * -47.87400000  *
   136       C         76.96100000  *  145.53700000  * -46.54400000  *
   137       H         76.79200000  *  146.36000000  * -47.22300000  *
   138       C         77.68000000  *  149.12700000  * -43.28900000  *
   139       O         78.79700000  *  149.54200000  * -43.59900000  *
   140       N         76.76200000  *  149.93700000  * -42.75400000  *
   141       H         75.86900000  *  149.55400000  * -42.47700000  *
   142       C         76.98500000  *  151.36400000  * -42.49600000  *
   143       H         77.56900000  *  151.48200000  * -41.58500000  *
   144       H         77.56300000  *  151.78000000  * -43.31200000  *
   145       C         75.68700000  *  152.16000000  * -42.34600000  *
   146       O         74.62300000  *  151.56900000  * -42.13800000  *
   147       N         75.75500000  *  153.49500000  * -42.44900000  *
   148       H         76.58800000  *  153.89400000  * -42.85900000  *
   149       C         74.59200000  *  154.32600000  * -42.21200000  *
   150       H         73.82600000  *  153.78000000  * -41.65800000  *
   151       C         74.95900000  *  155.54800000  * -41.37000000  *
   152       H         75.70700000  *  156.13900000  * -41.89300000  *
   153       C         73.73100000  *  156.40900000  * -41.13300000  *
   154       H         72.94300000  *  155.80300000  * -40.68200000  *
   155       H         73.98600000  *  157.21200000  * -40.45000000  *
   156       H         73.36800000  *  156.84900000  * -42.06500000  *
   157       C         75.54500000  *  155.09600000  * -40.05300000  *
   158       H         76.46000000  *  154.52800000  * -40.19800000  *
   159       H         75.77700000  *  155.95300000  * -39.42300000  *
   160       H         74.80500000  *  154.48400000  * -39.53200000  *
   161       C         74.01900000  *  154.79200000  * -43.53700000  *
   162       O         74.76100000  *  155.18400000  * -44.43700000  *
   163       N         72.69800000  *  154.65000000  * -43.67900000  *
   164       H         72.16300000  *  154.32100000  * -42.88100000  *
   165       C         71.92700000  *  155.09500000  * -44.84600000  *
   166       H         72.59800000  *  155.16800000  * -45.69900000  *
   167       C         70.80100000  *  154.10100000  * -45.21300000  *
   168       H         69.96000000  *  154.23900000  * -44.53300000  *
   169       C         70.32000000  *  154.36800000  * -46.64400000  *
   170       H         71.12700000  *  154.18000000  * -47.35400000  *
   171       H         69.48200000  *  153.71200000  * -46.88100000  *
   172       H         69.99500000  *  155.40000000  * -46.74800000  *
   173       C         71.22700000  *  152.62900000  * -45.11900000  *
   174       H         72.13800000  *  152.46900000  * -45.69100000  *
   175       H         71.40000000  *  152.35900000  * -44.07600000  *
   176       H         70.43200000  *  151.98900000  * -45.50600000  *
   177       C         71.34200000  *  156.47700000  * -44.55300000  *
   178       O         70.59700000  *  156.61800000  * -43.58000000  *
   179       N         71.62500000  *  157.49000000  * -45.37400000  *
   180       H         72.23900000  *  157.32200000  * -46.16900000  *
   181       C         71.01800000  *  158.79600000  * -45.21900000  *
   182       H         70.37900000  *  158.84300000  * -44.33800000  *
   183       C         72.10000000  *  159.86100000  * -45.06900000  *
   184       H         72.79900000  *  159.78100000  * -45.90500000  *
   185       H         71.63400000  *  160.84400000  * -45.14300000  *
   186       C         72.87100000  *  159.84300000  * -43.76800000  *
   187       C         72.34700000  *  160.43100000  * -42.61900000  *
   188       H         71.37700000  *  160.90600000  * -42.66800000  *
   189       C         73.06400000  *  160.45200000  * -41.42500000  *
   190       H         72.63300000  *  160.94600000  * -40.56800000  *
   191       C         74.33000000  *  159.87400000  * -41.37100000  *
   192       O         75.04700000  *  159.90100000  * -40.18700000  *
   193       H         74.69700000  *  160.54100000  * -39.56800000  *
   194       C         74.87500000  *  159.27800000  * -42.50300000  *
   195       H         75.78500000  *  158.71900000  * -42.41900000  *
   196       C         74.14000000  *  159.26700000  * -43.69600000  *
   197       H         74.51800000  *  158.73300000  * -44.56500000  *
   198       C         70.16700000  *  159.17400000  * -46.42900000  *
   199       O         70.41800000  *  158.72400000  * -47.55600000  *
   200       N         69.03000000  *  159.83500000  * -46.21300000  *
   201       H         68.84300000  *  160.14300000  * -45.26500000  *
   202       C         68.29500000  *  160.51200000  * -47.28200000  *
   203       H         68.28700000  *  159.91000000  * -48.19300000  *
   204       C         66.85000000  *  160.83800000  * -46.85100000  *
   205       H         66.33100000  *  159.91700000  * -46.59700000  *
   206       H         66.86600000  *  161.47400000  * -45.96400000  *
   207       C         66.04300000  *  161.53000000  * -47.96200000  *
   208       H         66.51900000  *  162.47300000  * -48.23400000  *
   209       H         66.01700000  *  160.88200000  * -48.84000000  *
   210       C         64.60800000  *  161.80900000  * -47.48800000  *
   211       H         64.15000000  *  160.87700000  * -47.15300000  *
   212       H         64.64100000  *  162.50300000  * -46.64700000  *
   213       C         63.76600000  *  162.40800000  * -48.62300000  *
   214       H         64.28700000  *  163.28500000  * -49.02200000  *
   215       H         63.69200000  *  161.66500000  * -49.42600000  *
   216       N         62.40700000  *  162.79600000  * -48.16000000  *
   217       H         62.45200000  *  163.50400000  * -47.44000000  *
   218       H         61.85700000  *  163.17900000  * -48.91700000  *
   219       H         61.90200000  *  162.00800000  * -47.78200000  *
   220       C         69.10200000  *  161.76700000  * -47.51000000  *
   221       O         69.33200000  *  162.50000000  * -46.55200000  *
   222       N         69.55500000  *  162.00600000  * -48.72500000  *
   223       H         69.34400000  *  161.34200000  * -49.46700000  *
   224       C         70.34900000  *  163.18200000  * -49.01700000  *
   225       H         70.22500000  *  163.93500000  * -48.24000000  *
   226       C         71.81400000  *  162.79200000  * -49.07000000  *
   227       H         71.97800000  *  162.06700000  * -49.86400000  *
   228       H         72.42900000  *  163.67700000  * -49.23900000  *
   229       H         72.10500000  *  162.33200000  * -48.12600000  *
   230       C         69.94400000  *  163.83800000  * -50.32200000  *
   231       O         69.22100000  *  163.25100000  * -51.12800000  *
   232       N         70.40700000  *  165.06400000  * -50.52400000  *
   233       H         70.93200000  *  165.53000000  * -49.79600000  *
   234       C         70.10800000  *  165.77900000  * -51.74600000  *
   235       H         69.54100000  *  165.15900000  * -52.44400000  *
   236       H         69.52200000  *  166.69100000  * -51.53000000  *
   237       H         71.05900000  *  166.04700000  * -52.23900000  *
   238       H         68.08600000  *  164.80700000  * -56.55000000  *
   239       C         68.21200000  *  164.39600000  * -55.53600000  *
   240       O         69.28600000  *  164.50800000  * -54.94200000  *
   241       N         67.13500000  *  163.82300000  * -55.01100000  *
   242       H         66.34000000  *  163.66800000  * -55.61500000  *
   243       C         67.13600000  *  163.21200000  * -53.68800000  *
   244       H         67.86300000  *  163.70700000  * -53.05000000  *
   245       C         65.75500000  *  163.32300000  * -53.02900000  *
   246       H         64.97700000  *  163.06900000  * -53.75000000  *
   247       C         65.64800000  *  162.36600000  * -51.85200000  *
   248       H         66.47200000  *  162.51800000  * -51.15200000  *
   249       H         64.69700000  *  162.53800000  * -51.34700000  *
   250       H         65.65200000  *  161.33900000  * -52.20000000  *
   251       C         65.54000000  *  164.75000000  * -52.56600000  *
   252       H         65.62600000  *  165.42400000  * -53.41600000  *
   253       H         64.53500000  *  164.85100000  * -52.15900000  *
   254       H         66.28400000  *  165.00300000  * -51.81000000  *
   255       C         67.52600000  *  161.76000000  * -53.84700000  *
   256       O         66.97900000  *  161.02800000  * -54.68200000  *
   257       N         68.49600000  *  161.34900000  * -53.04800000  *
   258       H         68.91100000  *  161.99700000  * -52.39100000  *
   259       C         69.01100000  *  159.99200000  * -53.10200000  *
   260       H         68.34600000  *  159.34100000  * -53.67900000  *
   261       C         70.37400000  *  159.97400000  * -53.81600000  *
   262       H         70.77500000  *  158.96500000  * -53.87500000  *
   263       C         70.21400000  *  160.50700000  * -55.21300000  *
   264       H         69.95700000  *  161.56600000  * -55.19000000  *
   265       H         71.15100000  *  160.39100000  * -55.75600000  *
   266       H         69.44200000  *  159.95000000  * -55.73600000  *
   267       C         71.37900000  *  160.85000000  * -53.05700000  *
   268       H         71.56500000  *  160.44500000  * -52.06400000  *
   269       H         72.31500000  *  160.84900000  * -53.61300000  *
   270       H         71.03600000  *  161.88400000  * -52.98400000  *
   271       C         69.19200000  *  159.37200000  * -51.72900000  *
   272       O         69.02000000  *  160.03600000  * -50.68600000  *
   273       N         69.38000000  *  158.05800000  * -51.70300000  *
   274       H         69.45900000  *  157.56500000  * -52.58800000  *
   275       C         69.76000000  *  157.32400000  * -50.51200000  *
   276       H         69.48000000  *  157.88800000  * -49.62400000  *
   277       C         69.00500000  *  156.00300000  * -50.47100000  *
   278       H         69.23100000  *  155.42900000  * -51.36700000  *
   279       H         69.30100000  *  155.43200000  * -49.59000000  *
   280       H         67.93700000  *  156.20500000  * -50.42400000  *
   281       C         71.27700000  *  157.14600000  * -50.54100000  *
   282       O         71.81100000  *  156.47600000  * -51.43100000  *
   283       N         71.97000000  *  157.79100000  * -49.60300000  *
   284       H         71.44500000  *  158.28300000  * -48.88900000  *
   285       C         73.41300000  *  157.73400000  * -49.53500000  *
   286       H         73.80300000  *  157.43200000  * -50.50200000  *
   287       C         73.96100000  *  159.11400000  * -49.18200000  *
   288       H         73.49200000  *  159.84000000  * -49.85100000  *
   289       H         73.62800000  *  159.35800000  * -48.16900000  *
   290       C         75.47300000  *  159.31600000  * -49.26600000  *
   291       H         75.96900000  *  158.63700000  * -48.57100000  *
   292       C         75.94900000  *  159.02000000  * -50.68400000  *
   293       H         75.44100000  *  159.71800000  * -51.34800000  *
   294       H         77.02400000  *  159.18800000  * -50.76300000  *
   295       H         75.74700000  *  157.98700000  * -50.96800000  *
   296       C         75.80400000  *  160.74000000  * -48.87900000  *
   297       H         75.43700000  *  160.94600000  * -47.87600000  *
   298       H         76.88200000  *  160.87900000  * -48.92200000  *
   299       H         75.32000000  *  161.42900000  * -49.57600000  *
   300       C         73.82100000  *  156.71600000  * -48.48500000  *
   301       O         73.39600000  *  156.78100000  * -47.33400000  *
   302       N         74.65600000  *  155.76300000  * -48.88800000  *
   303       H         74.89400000  *  155.74700000  * -49.87800000  *
   304       C         75.14500000  *  154.64500000  * -48.07400000  *
   305       H         74.61200000  *  154.60800000  * -47.12200000  *
   306       C         74.88700000  *  153.35100000  * -48.87400000  *
   307       H         74.30400000  *  153.58800000  * -49.76600000  *
   308       H         75.82800000  *  152.92200000  * -49.21700000  *
   309       C         74.11400000  *  152.25700000  * -48.14700000  *
   310       H         73.22500000  *  152.68200000  * -47.68500000  *
   311       H         73.80400000  *  151.56700000  * -48.92600000  *
   312       C         74.94200000  *  151.48400000  * -47.11100000  *
   313       H         75.93100000  *  151.28100000  * -47.51700000  *
   314       H         75.06400000  *  152.10600000  * -46.22000000  *
   315       C         74.27300000  *  150.15200000  * -46.71900000  *
   316       H         74.85400000  *  149.71000000  * -45.90300000  *
   317       H         73.27400000  *  150.37200000  * -46.32800000  *
   318       N         74.18600000  *  149.18900000  * -47.86100000  *
   319       H         75.09500000  *  148.92400000  * -48.22000000  *
   320       H         73.68800000  *  148.32600000  * -47.60100000  *
   321       H         73.62100000  *  149.55900000  * -48.62500000  *
   322       C         76.63100000  *  154.85800000  * -47.80000000  *
   323       O         77.43100000  *  154.70000000  * -48.71400000  *
   324       N         77.01700000  *  155.22600000  * -46.58100000  *
   325       H         76.29800000  *  155.26800000  * -45.86500000  *
   326       C         78.42200000  *  155.28900000  * -46.15900000  *
   327       H         79.06600000  *  155.59300000  * -46.98900000  *
   328       C         78.56700000  *  156.26000000  * -44.97900000  *
   329       H         78.02700000  *  155.87500000  * -44.10900000  *
   330       H         79.62500000  *  156.33900000  * -44.73000000  *
   331       C         78.01500000  *  157.64300000  * -45.34000000  *
   332       H         78.45100000  *  157.95800000  * -46.27300000  *
   333       H         76.93600000  *  157.57500000  * -45.50000000  *
   334       C         78.25100000  *  158.72500000  * -44.27900000  *
   335       H         77.97800000  *  159.68000000  * -44.73200000  *
   336       H         77.56000000  *  158.53300000  * -43.46900000  *
   337       C         79.67700000  *  158.85000000  * -43.70900000  *
   338       H         80.38400000  *  158.36300000  * -44.39700000  *
   339       H         79.95000000  *  159.91100000  * -43.68600000  *
   340       N         79.78800000  *  158.26900000  * -42.33500000  *
   341       H         79.63700000  *  157.26100000  * -42.37000000  *
   342       H         80.69600000  *  158.42600000  * -41.93200000  *
   343       H         79.10400000  *  158.64600000  * -41.70100000  *
   344       C         78.82300000  *  153.89100000  * -45.72900000  *
   345       O         78.09100000  *  153.31500000  * -44.93700000  *
   346       N         79.90700000  *  153.32000000  * -46.24700000  *
   347       H         80.40500000  *  153.76400000  * -47.01000000  *
   348       C         80.34300000  *  152.02200000  * -45.76800000  *
   349       H         79.49500000  *  151.49800000  * -45.35900000  *
   350       C         80.94400000  *  151.18600000  * -46.89500000  *
   351       H         81.78600000  *  151.78200000  * -47.16900000  *
   352       C         81.42400000  *  149.85200000  * -46.34500000  *
   353       H         80.65600000  *  149.35200000  * -45.75200000  *
   354       H         81.67900000  *  149.19900000  * -47.17900000  *
   355       H         82.34500000  *  149.95700000  * -45.76100000  *
   356       C         79.89700000  *  150.97600000  * -47.99700000  *
   357       H         79.60200000  *  151.87000000  * -48.50000000  *
   358       H         80.28300000  *  150.30500000  * -48.75000000  *
   359       C         78.59100000  *  150.36100000  * -47.52600000  *
   360       H         78.17700000  *  150.90100000  * -46.69000000  *
   361       H         77.89400000  *  150.33700000  * -48.36300000  *
   362       H         78.77100000  *  149.33300000  * -47.20900000  *
   363       C         81.33300000  *  152.07100000  * -44.61400000  *
   364       O         82.16700000  *  152.98000000  * -44.51900000  *
   365       N         81.21100000  *  151.07100000  * -43.74300000  *
   366       H         80.50300000  *  150.36100000  * -43.92800000  *
   367       C         82.04400000  *  150.90200000  * -42.55200000  *
   368       H         81.47500000  *  151.18100000  * -41.66300000  *
   369       H         82.35800000  *  149.86100000  * -42.45900000  *
   370       H         82.94700000  *  151.51400000  * -42.62000000  *
   371       H         81.25700000  *  144.04600000  * -57.89900000  *
   372       C         80.50000000  *  144.84100000  * -57.88800000  *
   373       O         79.71500000  *  144.99000000  * -58.82400000  *
   374       N         80.49900000  *  145.60300000  * -56.79700000  *
   375       H         81.28000000  *  145.52500000  * -56.16600000  *
   376       C         79.57000000  *  146.70600000  * -56.61200000  *
   377       H         78.57500000  *  146.34400000  * -56.42300000  *
   378       C         80.00500000  *  147.61000000  * -55.44200000  *
   379       H         80.89800000  *  148.18000000  * -55.68500000  *
   380       C         78.90600000  *  148.60800000  * -55.12500000  *
   381       H         77.92000000  *  148.14100000  * -55.17600000  *
   382       H         79.04500000  *  148.98700000  * -54.11600000  *
   383       H         78.93800000  *  149.43600000  * -55.83300000  *
   384       C         80.32100000  *  146.76200000  * -54.20900000  *
   385       H         81.19200000  *  146.13400000  * -54.40600000  *
   386       H         80.59400000  *  147.42200000  * -53.38900000  *
   387       C         79.18400000  *  145.87900000  * -53.76500000  *
   388       H         78.77800000  *  145.31100000  * -54.59400000  *
   389       H         79.50900000  *  145.12200000  * -53.06500000  *
   390       H         78.38800000  *  146.48300000  * -53.33500000  *
   391       C         79.54300000  *  147.54500000  * -57.87900000  *
   392       O         78.48200000  *  147.77900000  * -58.45100000  *
   393       N         80.72300000  *  147.98900000  * -58.30900000  *
   394       H         81.55800000  *  147.70100000  * -57.81200000  *
   395       C         80.85900000  *  148.80400000  * -59.51100000  *
   396       H         80.33900000  *  149.74600000  * -59.38600000  *
   397       H         81.92800000  *  148.98500000  * -59.72900000  *
   398       H         80.37800000  *  148.32200000  * -60.38100000  *
   399       H         78.96400000  *  146.08700000  * -61.65600000  *
   400       C         77.87300000  *  146.08700000  * -61.51600000  *
   401       O         77.11500000  *  145.89500000  * -62.46400000  *
   402       N         77.44600000  *  146.31800000  * -60.28000000  *
   403       H         78.13400000  *  146.42500000  * -59.54900000  *
   404       C         76.02800000  *  146.35200000  * -59.94500000  *
   405       H         75.53300000  *  145.47600000  * -60.35900000  *
   406       C         75.84100000  *  146.37400000  * -58.43100000  *
   407       H         76.20500000  *  147.30400000  * -58.01800000  *
   408       H         74.76300000  *  146.35700000  * -58.24200000  *
   409       C         76.47200000  *  145.22200000  * -57.65900000  *
   410       H         77.55000000  *  145.23900000  * -57.74900000  *
   411       C         76.08000000  *  145.34100000  * -56.19200000  *
   412       H         74.99900000  *  145.23000000  * -56.07700000  *
   413       H         76.57300000  *  144.55300000  * -55.62900000  *
   414       H         76.38500000  *  146.30900000  * -55.80100000  *
   415       C         75.99600000  *  143.89000000  * -58.23600000  *
   416       H         76.41500000  *  143.73000000  * -59.22900000  *
   417       H         76.32800000  *  143.07800000  * -57.59100000  *
   418       H         74.90500000  *  143.87400000  * -58.30500000  *
   419       C         75.32200000  *  147.55900000  * -60.54800000  *
   420       O         74.09500000  *  147.56800000  * -60.66200000  *
   421       N         76.08400000  *  148.63100000  * -60.82900000  *
   422       H         77.08200000  *  148.53500000  * -60.67700000  *
   423       C         75.60100000  *  149.83300000  * -61.53400000  *
   424       H         74.83700000  *  150.33500000  * -60.94100000  *
   425       H         76.43800000  *  150.53300000  * -61.75900000  *
   426       H         75.13800000  *  149.54900000  * -62.49200000  *
   427       H         62.79000000  *  145.77200000  * -59.27600000  *
   428       C         63.71000000  *  145.72000000  * -58.67500000  *
   429       O         63.77900000  *  145.02200000  * -57.66400000  *
   430       N         64.72400000  *  146.45200000  * -59.11400000  *
   431       H         64.63800000  *  147.05100000  * -59.92700000  *
   432       C         65.97100000  *  146.53500000  * -58.38100000  *
   433       H         65.88400000  *  146.09200000  * -57.38600000  *
   434       C         67.11600000  *  145.87700000  * -59.11400000  *
   435       H         67.33600000  *  146.42600000  * -60.03000000  *
   436       C         68.35100000  *  145.87800000  * -58.21400000  *
   437       H         68.14700000  *  145.31400000  * -57.31800000  *
   438       H         69.21000000  *  145.44500000  * -58.72400000  *
   439       H         68.64100000  *  146.89000000  * -57.94500000  *
   440       C         66.72800000  *  144.44400000  * -59.47800000  *
   441       H         66.54900000  *  143.87300000  * -58.56400000  *
   442       H         65.81500000  *  144.42400000  * -60.06800000  *
   443       C         67.77400000  *  143.72700000  * -60.29600000  *
   444       H         68.68300000  *  143.57700000  * -59.72200000  *
   445       H         67.37700000  *  142.75300000  * -60.59800000  *
   446       H         68.02300000  *  144.31300000  * -61.18000000  *
   447       C         66.29500000  *  148.01000000  * -58.22000000  *
   448       O         66.21200000  *  148.78000000  * -59.18400000  *
   449       N         66.54800000  *  148.43900000  * -56.98200000  *
   450       H         66.61800000  *  147.75600000  * -56.23100000  *
   451       C         66.89100000  *  149.83400000  * -56.68400000  *
   452       H         66.07600000  *  150.48100000  * -57.00900000  *
   453       C         67.10100000  *  150.03400000  * -55.17800000  *
   454       H         67.88900000  *  149.36300000  * -54.83200000  *
   455       C         67.50200000  *  151.47000000  * -54.83400000  *
   456       H         66.68900000  *  152.16100000  * -55.06300000  *
   457       H         67.73400000  *  151.51300000  * -53.77300000  *
   458       H         68.38900000  *  151.77000000  * -55.38700000  *
   459       C         65.81900000  *  149.72800000  * -54.40100000  *
   460       H         65.53400000  *  148.68500000  * -54.51800000  *
   461       H         66.00000000  *  149.91000000  * -53.34800000  *
   462       H         65.00700000  *  150.36200000  * -54.75000000  *
   463       C         68.15000000  *  150.21100000  * -57.45900000  *
   464       O         69.17700000  *  149.53700000  * -57.34300000  *
   465       N         68.08000000  *  151.28300000  * -58.25100000  *
   466       H         67.22500000  *  151.80400000  * -58.24500000  *
   467       C         69.18900000  *  151.69800000  * -59.08000000  *
   468       H         69.52500000  *  150.81900000  * -59.63900000  *
   469       C         68.73700000  *  152.76800000  * -60.08300000  *
   470       H         67.83400000  *  152.41100000  * -60.57900000  *
   471       H         68.47700000  *  153.68100000  * -59.53700000  *
   472       C         69.79100000  *  153.06900000  * -61.13100000  *
   473       H         70.72100000  *  153.35000000  * -60.64200000  *
   474       H         69.97400000  *  152.16800000  * -61.71600000  *
   475       C         69.35100000  *  154.17900000  * -62.08100000  *
   476       H         68.50200000  *  153.81400000  * -62.66100000  *
   477       H         69.02300000  *  155.05600000  * -61.52200000  *
   478       C         70.49800000  *  154.55900000  * -63.02400000  *
   479       H         71.33900000  *  154.89000000  * -62.40800000  *
   480       H         70.81900000  *  153.66100000  * -63.56600000  *
   481       N         70.11800000  *  155.62600000  * -63.99700000  *
   482       H         69.74700000  *  156.41600000  * -63.48300000  *
   483       H         70.92600000  *  155.93300000  * -64.52500000  *
   484       H         69.41500000  *  155.27800000  * -64.63600000  *
   485       C         70.36000000  *  152.21400000  * -58.25300000  *
   486       O         70.19400000  *  153.07400000  * -57.38700000  *
   487       N         71.53700000  *  151.64500000  * -58.50700000  *
   488       H         71.59600000  *  150.90400000  * -59.18600000  *
   489       C         72.75000000  *  152.07400000  * -57.83600000  *
   490       H         72.53800000  *  152.52600000  * -56.87100000  *
   491       C         73.72700000  *  150.91100000  * -57.67000000  *
   492       H         73.31500000  *  150.22100000  * -56.93700000  *
   493       H         73.77900000  *  150.36900000  * -58.62000000  *
   494       C         75.16700000  *  151.27300000  * -57.28800000  *
   495       H         75.65500000  *  151.80300000  * -58.10000000  *
   496       C         75.18300000  *  152.16500000  * -56.05900000  *
   497       H         74.60800000  *  151.72100000  * -55.25200000  *
   498       H         76.21000000  *  152.29600000  * -55.73500000  *
   499       H         74.78900000  *  153.14000000  * -56.31200000  *
   500       C         75.93300000  *  149.99400000  * -57.01300000  *
   501       H         75.98300000  *  149.42100000  * -57.93300000  *
   502       H         76.94600000  *  150.24200000  * -56.71200000  *
   503       H         75.43500000  *  149.41000000  * -56.23200000  *
   504       C         73.31900000  *  153.11300000  * -58.79500000  *
   505       O         73.76900000  *  152.77900000  * -59.89700000  *
   506       N         73.26700000  *  154.36900000  * -58.37800000  *
   507       H         72.92600000  *  154.57000000  * -57.44900000  *
   508       C         73.73400000  *  155.46600000  * -59.19700000  *
   509       H         73.47500000  *  155.26500000  * -60.23600000  *
   510       C         73.02500000  *  156.74200000  * -58.76000000  *
   511       H         73.45000000  *  157.06300000  * -57.80900000  *
   512       H         73.23600000  *  157.53300000  * -59.48700000  *
   513       C         71.51300000  *  156.60300000  * -58.58700000  *
   514       H         71.27400000  *  155.80900000  * -57.88500000  *
   515       C         70.97400000  *  157.88000000  * -58.01900000  *
   516       H         71.37000000  *  158.74600000  * -58.56000000  *
   517       H         69.88800000  *  157.89100000  * -58.09300000  *
   518       H         71.22100000  *  157.96000000  * -56.96600000  *
   519       C         70.85100000  *  156.29000000  * -59.92300000  *
   520       H         71.28300000  *  155.39700000  * -60.34200000  *
   521       H         69.78900000  *  156.14400000  * -59.75100000  *
   522       H         71.00300000  *  157.12700000  * -60.60700000  *
   523       C         75.24500000  *  155.67800000  * -59.15800000  *
   524       O         75.83900000  *  156.04700000  * -60.17600000  *
   525       N         75.86200000  *  155.44600000  * -57.99600000  *
   526       H         75.29500000  *  155.17900000  * -57.20400000  *
   527       C         77.30800000  *  155.64700000  * -57.82900000  *
   528       H         77.80800000  *  155.40400000  * -58.76600000  *
   529       C         77.60000000  *  157.11700000  * -57.51900000  *
   530       H         76.91700000  *  157.54400000  * -56.80300000  *
   531       H         78.58200000  *  157.17000000  * -57.04800000  *
   532       C         77.65600000  *  157.97500000  * -58.75600000  *
   533       O         78.67800000  *  157.91700000  * -59.48300000  *
   534       O         76.67400000  *  158.70400000  * -59.00000000  *
   535       C         77.97900000  *  154.81700000  * -56.73400000  *
   536       O         77.37100000  *  154.52100000  * -55.70400000  *
   537       N         79.24700000  *  154.47700000  * -56.96600000  *
   538       H         79.69800000  *  154.82400000  * -57.79800000  *
   539       C         80.06100000  *  153.73800000  * -56.00300000  *
   540       H         79.55400000  *  153.69900000  * -55.05200000  *
   541       C         80.36600000  *  152.29800000  * -56.50400000  *
   542       H         79.42700000  *  151.75200000  * -56.56200000  *
   543       C         80.98100000  *  152.34300000  * -57.88400000  *
   544       H         82.06600000  *  152.43300000  * -57.82100000  *
   545       H         80.74600000  *  151.41400000  * -58.37900000  *
   546       H         80.59600000  *  153.14500000  * -58.51000000  *
   547       C         81.29900000  *  151.58800000  * -55.53900000  *
   548       H         80.81100000  *  151.54900000  * -54.57200000  *
   549       H         81.47300000  *  150.57200000  * -55.87800000  *
   550       H         82.25900000  *  152.09200000  * -55.44900000  *
   551       C         81.36500000  *  154.53600000  * -55.81000000  *
   552       O         82.27000000  *  154.48900000  * -56.64700000  *
   553       N         81.45200000  *  155.28200000  * -54.71000000  *
   554       H         80.67600000  *  155.30400000  * -54.06400000  *
   555       C         82.62100000  *  156.11100000  * -54.44300000  *
   556       H         83.20500000  *  156.21800000  * -55.35800000  *
   557       H         82.32200000  *  157.12800000  * -54.14500000  *
   558       H         83.29700000  *  155.73900000  * -53.65600000  *
   559       H         84.58000000  *  155.17100000  * -47.07300000  *
   560       C         84.22500000  *  154.98400000  * -48.09100000  *
   561       O         84.63900000  *  155.65900000  * -49.04200000  *
   562       N         83.35800000  *  153.99100000  * -48.22200000  *
   563       H         83.13600000  *  153.42800000  * -47.41700000  *
   564       C         82.77600000  *  153.65100000  * -49.50600000  *
   565       H         83.37000000  *  154.04700000  * -50.31700000  *
   566       C         82.71900000  *  152.14000000  * -49.66000000  *
   567       H         83.74000000  *  151.87500000  * -49.95700000  *
   568       H         82.64400000  *  151.54600000  * -48.78400000  *
   569       C         81.82600000  *  151.61900000  * -50.77900000  *
   570       H         80.79100000  *  151.88400000  * -50.58700000  *
   571       C         82.25800000  *  152.23100000  * -52.09200000  *
   572       H         83.31100000  *  152.49100000  * -52.08900000  *
   573       H         82.09300000  *  151.51300000  * -52.88400000  *
   574       H         81.65400000  *  153.10900000  * -52.31200000  *
   575       C         81.89900000  *  150.09400000  * -50.82200000  *
   576       H         81.91300000  *  149.66400000  * -49.82700000  *
   577       H         81.05200000  *  149.70600000  * -51.39100000  *
   578       H         82.82500000  *  149.80300000  * -51.32100000  *
   579       C         81.36700000  *  154.23200000  * -49.54800000  *
   580       O         80.51800000  *  153.85700000  * -48.74500000  *
   581       N         81.13100000  *  155.16100000  * -50.46700000  *
   582       H         81.84500000  *  155.34800000  * -51.16200000  *
   583       C         79.82200000  *  155.78100000  * -50.60800000  *
   584       H         79.27400000  *  155.67000000  * -49.68700000  *
   585       C         79.96700000  *  157.27800000  * -50.86800000  *
   586       H         80.42300000  *  157.50400000  * -51.79700000  *
   587       H         78.95400000  *  157.66400000  * -50.98900000  *
   588       C         80.57600000  *  158.04300000  * -49.72300000  *
   589       C         79.79300000  *  158.48000000  * -48.65600000  *
   590       H         78.73500000  *  158.25400000  * -48.66900000  *
   591       C         80.35600000  *  159.18600000  * -47.59400000  *
   592       H         79.75300000  *  159.56200000  * -46.79700000  *
   593       C         81.71600000  *  159.45200000  * -47.58700000  *
   594       O         82.27600000  *  160.12500000  * -46.52100000  *
   595       H         83.20600000  *  160.30800000  * -46.74500000  *
   596       C         82.51400000  *  159.02600000  * -48.63700000  *
   597       H         83.58200000  *  159.23300000  * -48.65000000  *
   598       C         81.94100000  *  158.32800000  * -49.69800000  *
   599       H         82.57400000  *  157.98100000  * -50.50200000  *
   600       C         79.04800000  *  155.15800000  * -51.76500000  *
   601       O         79.54400000  *  155.08000000  * -52.88800000  *
   602       N         77.86500000  *  154.61600000  * -51.49600000  *
   603       H         77.53600000  *  154.64000000  * -50.53600000  *
   604       C         76.98200000  *  154.05600000  * -52.51800000  *
   605       H         77.51000000  *  154.01100000  * -53.46500000  *
   606       C         76.53800000  *  152.62200000  * -52.18300000  *
   607       H         75.82300000  *  152.65900000  * -51.37000000  *
   608       H         76.01300000  *  152.22500000  * -53.05300000  *
   609       C         77.66300000  *  151.64900000  * -51.80100000  *
   610       H         78.16100000  *  151.99400000  * -50.89500000  *
   611       C         77.08400000  *  150.26000000  * -51.53300000  *
   612       H         76.60500000  *  149.87300000  * -52.43400000  *
   613       H         77.88200000  *  149.58000000  * -51.23200000  *
   614       H         76.35100000  *  150.31600000  * -50.73000000  *
   615       C         78.69000000  *  151.52500000  * -52.92000000  *
   616       H         79.21200000  *  152.47000000  * -53.04300000  *
   617       H         79.42000000  *  150.76200000  * -52.66200000  *
   618       H         78.19300000  *  151.26100000  * -53.85500000  *
   619       C         75.79100000  *  154.99100000  * -52.67200000  *
   620       O         75.11600000  *  155.27500000  * -51.67900000  *
   621       N         75.54700000  *  155.50800000  * -53.87800000  *
   622       H         76.14500000  *  155.25500000  * -54.66000000  *
   623       C         74.40900000  *  156.37500000  * -54.09400000  *
   624       H         73.97600000  *  156.70200000  * -53.15000000  *
   625       C         74.83400000  *  157.63700000  * -54.81800000  *
   626       H         75.25500000  *  157.34500000  * -55.76600000  *
   627       C         73.61400000  *  158.52200000  * -55.10900000  *
   628       H         73.11700000  *  158.76900000  * -54.17500000  *
   629       H         73.94100000  *  159.43100000  * -55.61500000  *
   630       H         72.91600000  *  158.00900000  * -55.76200000  *
   631       C         75.84000000  *  158.38200000  * -53.94900000  *
   632       H         75.28100000  *  158.78400000  * -53.13000000  *
   633       H         76.65600000  *  157.75800000  * -53.60500000  *
   634       H         76.26100000  *  159.20400000  * -54.52500000  *
   635       C         73.31400000  *  155.64400000  * -54.85300000  *
   636       O         73.49500000  *  155.22100000  * -55.99400000  *
   637       N         72.20400000  *  155.39400000  * -54.16400000  *
   638       H         72.13500000  *  155.74600000  * -53.21300000  *
   639       C         71.02400000  *  154.72700000  * -54.70600000  *
   640       H         71.27500000  *  154.26100000  * -55.65400000  *
   641       C         70.55800000  *  153.63500000  * -53.73800000  *
   642       H         70.39600000  *  154.08000000  * -52.75800000  *
   643       H         69.59500000  *  153.26400000  * -54.08500000  *
   644       C         71.49600000  *  152.45200000  * -53.59000000  *
   645       C         71.40600000  *  151.36400000  * -54.48100000  *
   646       H         70.69400000  *  151.38400000  * -55.29300000  *
   647       C         72.23100000  *  150.23800000  * -54.30900000  *
   648       H         72.14900000  *  149.39900000  * -54.98700000  *
   649       C         73.15500000  *  150.19800000  * -53.25200000  *
   650       H         73.78600000  *  149.32900000  * -53.11600000  *
   651       C         73.25100000  *  151.28400000  * -52.36500000  *
   652       H         73.94600000  *  151.24400000  * -51.54000000  *
   653       C         72.42600000  *  152.41100000  * -52.53300000  *
   654       H         72.49500000  *  153.23800000  * -51.83800000  *
   655       C         69.89700000  *  155.73700000  * -54.95000000  *
   656       O         69.75000000  *  156.70300000  * -54.20100000  *
   657       N         69.08200000  *  155.52400000  * -55.98500000  *
   658       H         69.24300000  *  154.70300000  * -56.56100000  *
   659       C         67.82500000  *  156.27300000  * -56.15200000  *
   660       H         68.07600000  *  157.32100000  * -56.32600000  *
   661       C         67.05200000  *  155.76400000  * -57.38200000  *
   662       H         66.20200000  *  156.42800000  * -57.54000000  *
   663       H         67.70100000  *  155.82100000  * -58.25700000  *
   664       C         66.53800000  *  154.32300000  * -57.23000000  *
   665       H         67.39000000  *  153.66100000  * -57.06900000  *
   666       H         65.89300000  *  154.26100000  * -56.35600000  *
   667       C         65.71500000  *  153.81800000  * -58.41700000  *
   668       O         65.24400000  *  154.62400000  * -59.25200000  *
   669       O         65.49800000  *  152.58700000  * -58.47900000  *
   670       C         66.96600000  *  156.19700000  * -54.87300000  *
   671       O         66.86700000  *  155.13600000  * -54.25600000  *
   672       N         66.35400000  *  157.29900000  * -54.43600000  *
   673       H         66.41600000  *  158.15500000  * -54.97000000  *
   674       C         65.49700000  *  157.28200000  * -53.24600000  *
   675       H         65.98000000  *  156.67100000  * -52.48000000  *
   676       C         65.37100000  *  158.69700000  * -52.67800000  *
   677       H         66.36700000  *  159.06400000  * -52.43900000  *
   678       H         64.94700000  *  159.34800000  * -53.44300000  *
   679       C         64.52500000  *  158.78900000  * -51.42300000  *
   680       C         63.21600000  *  159.30500000  * -51.48400000  *
   681       H         62.80600000  *  159.63800000  * -52.42800000  *
   682       C         62.43500000  *  159.38700000  * -50.31800000  *
   683       H         61.43000000  *  159.78400000  * -50.37000000  *
   684       C         62.95800000  *  158.95100000  * -49.08900000  *
   685       H         62.35600000  *  159.01200000  * -48.19200000  *
   686       C         64.26500000  *  158.43600000  * -49.02500000  *
   687       H         64.66700000  *  158.10500000  * -48.07700000  *
   688       C         65.04800000  *  158.35400000  * -50.19000000  *
   689       H         66.05200000  *  157.95800000  * -50.13900000  *
   690       C         64.11800000  *  156.66700000  * -53.53500000  *
   691       O         63.46400000  *  157.02800000  * -54.51700000  *
   692       N         63.65500000  *  155.78600000  * -52.64300000  *
   693       H         64.26600000  *  155.52000000  * -51.88000000  *
   694       C         62.26000000  *  155.33600000  * -52.55500000  *
   695       H         61.65500000  *  155.87000000  * -53.29000000  *
   696       C         62.14200000  *  153.82700000  * -52.83300000  *
   697       H         62.88100000  *  153.29400000  * -52.23700000  *
   698       H         61.15400000  *  153.51300000  * -52.49500000  *
   699       C         62.28500000  *  153.45000000  * -54.32100000  *
   700       H         61.91300000  *  154.26400000  * -54.94200000  *
   701       C         63.73700000  *  153.14900000  * -54.69400000  *
   702       H         64.12900000  *  152.35900000  * -54.05800000  *
   703       H         63.80000000  *  152.85200000  * -55.74000000  *
   704       H         64.34400000  *  154.04100000  * -54.55800000  *
   705       C         61.45800000  *  152.20200000  * -54.64100000  *
   706       H         60.41400000  *  152.37100000  * -54.37300000  *
   707       H         61.50500000  *  151.99400000  * -55.70900000  *
   708       H         61.83300000  *  151.34300000  * -54.08900000  *
   709       C         61.69600000  *  155.68500000  * -51.17300000  *
   710       O         62.41800000  *  155.69000000  * -50.17800000  *
   711       N         60.41200000  *  156.03300000  * -51.11600000  *
   712       H         59.88700000  *  156.03800000  * -51.98200000  *
   713       C         59.80400000  *  156.72700000  * -49.97600000  *
   714       H         60.48700000  *  157.51800000  * -49.66400000  *
   715       C         58.51100000  *  157.40400000  * -50.45300000  *
   716       H         57.75900000  *  156.63600000  * -50.63500000  *
   717       H         58.15200000  *  158.05800000  * -49.65900000  *
   718       C         58.66200000  *  158.22100000  * -51.71700000  *
   719       N         58.71800000  *  157.70200000  * -53.01600000  *
   720       C         58.88200000  *  158.76100000  * -53.82800000  *
   721       H         58.96300000  *  158.70900000  * -54.90900000  *
   722       N         58.93300000  *  159.89700000  * -53.11200000  *
   723       H         59.04900000  *  160.82800000  * -53.50200000  *
   724       C         58.79800000  *  159.57700000  * -51.77800000  *
   725       H         58.80200000  *  160.26100000  * -50.93800000  *
   726       C         59.55400000  *  155.86800000  * -48.72200000  *
   727       O         59.43400000  *  156.42800000  * -47.63200000  *
   728       N         59.46800000  *  154.53800000  * -48.84800000  *
   729       H         59.59100000  *  154.13600000  * -49.76800000  *
   730       C         59.10000000  *  153.62000000  * -47.75700000  *
   731       H         59.56200000  *  153.97200000  * -46.83500000  *
   732       C         57.56700000  *  153.66600000  * -47.57300000  *
   733       H         57.28700000  *  154.68200000  * -47.29200000  *
   734       H         57.07600000  *  153.43000000  * -48.51900000  *
   735       C         57.04700000  *  152.70300000  * -46.49400000  *
   736       H         56.93000000  *  151.71300000  * -46.92900000  *
   737       H         57.77300000  *  152.64400000  * -45.68400000  *
   738       C         55.72300000  *  153.15300000  * -45.88800000  *
   739       O         55.67200000  *  153.85100000  * -44.88800000  *
   740       N         54.59700000  *  152.77500000  * -46.45700000  *
   741       H         53.74300000  *  153.09500000  * -46.02600000  *
   742       H         54.60700000  *  152.22900000  * -47.30000000  *
   743       C         59.61000000  *  152.18700000  * -48.00200000  *
   744       O         59.68300000  *  151.73900000  * -49.14900000  *
   745       N         59.94800000  *  151.45900000  * -46.93100000  *
   746       H         59.85200000  *  151.88600000  * -46.01000000  *
   747       C         60.27600000  *  150.02500000  * -46.99800000  *
   748       H         60.56800000  *  149.80300000  * -48.02000000  *
   749       C         61.50400000  *  149.69600000  * -46.13000000  *
   750       H         61.83400000  *  148.68800000  * -46.38900000  *
   751       H         62.31100000  *  150.37900000  * -46.40200000  *
   752       C         61.28500000  *  149.75100000  * -44.61500000  *
   753       O         60.31200000  *  149.14000000  * -44.12400000  *
   754       O         62.13600000  *  150.35200000  * -43.92000000  *
   755       C         59.07200000  *  149.10700000  * -46.69900000  *
   756       O         58.03900000  *  149.53800000  * -46.16800000  *
   757       N         59.19100000  *  147.81900000  * -47.04800000  *
   758       H         60.03800000  *  147.50900000  * -47.52500000  *
   759       C         58.10100000  *  146.88000000  * -46.84100000  *
   760       H         57.21800000  *  147.32500000  * -47.29300000  *
   761       C         58.41200000  *  145.57700000  * -47.59200000  *
   762       H         58.61300000  *  145.80400000  * -48.64400000  *
   763       H         59.28800000  *  145.12100000  * -47.15800000  *
   764       C         57.28700000  *  144.52700000  * -47.51900000  *
   765       H         57.05600000  *  144.28000000  * -46.48700000  *
   766       C         56.00700000  *  145.04400000  * -48.19600000  *
   767       H         56.23500000  *  145.37800000  * -49.20200000  *
   768       H         55.26800000  *  144.24500000  * -48.23100000  *
   769       H         55.59500000  *  145.87000000  * -47.62900000  *
   770       C         57.76800000  *  143.24900000  * -48.17500000  *
   771       H         58.61500000  *  142.85400000  * -47.62000000  *
   772       H         56.97300000  *  142.50400000  * -48.17100000  *
   773       H         58.06400000  *  143.44500000  * -49.20700000  *
   774       C         57.76400000  *  146.61300000  * -45.36900000  *
   775       O         56.60900000  *  146.37600000  * -45.03000000  *
   776       N         58.75700000  *  146.67700000  * -44.48800000  *
   777       H         59.64000000  *  147.08600000  * -44.79000000  *
   778       C         58.49100000  *  146.46700000  * -43.07300000  *
   779       H         57.97900000  *  145.55100000  * -42.87200000  *
   780       C         59.78200000  *  146.47800000  * -42.25400000  *
   781       H         60.44800000  *  145.70000000  * -42.62000000  *
   782       H         60.28600000  *  147.44000000  * -42.35600000  *
   783       C         59.49200000  *  146.22900000  * -40.76500000  *
   784       H         58.94200000  *  147.08300000  * -40.37400000  *
   785       H         58.87100000  *  145.33200000  * -40.67600000  *
   786       C         60.74500000  *  146.03800000  * -39.93500000  *
   787       H         61.36100000  *  145.25900000  * -40.37900000  *
   788       H         61.30800000  *  146.97100000  * -39.90700000  *
   789       C         60.37600000  *  145.60700000  * -38.51700000  *
   790       H         59.98500000  *  144.58900000  * -38.53700000  *
   791       H         61.27900000  *  145.61300000  * -37.90300000  *
   792       N         59.34600000  *  146.53100000  * -37.94700000  *
   793       H         58.44600000  *  146.48100000  * -38.44300000  *
   794       H         59.09000000  *  146.27800000  * -37.00400000  *
   795       H         59.61300000  *  147.50600000  * -37.97800000  *
   796       C         57.55800000  *  147.53800000  * -42.51200000  *
   797       O         56.61300000  *  147.23400000  * -41.78300000  *
   798       N         57.83600000  *  148.81600000  * -42.79700000  *
   799       H         58.66500000  *  149.01400000  * -43.36300000  *
   800       C         56.99500000  *  149.92300000  * -42.32000000  *
   801       H         56.87700000  *  149.82600000  * -41.23900000  *
   802       C         57.66000000  *  151.27900000  * -42.60300000  *
   803       H         58.65800000  *  151.28000000  * -42.16200000  *
   804       H         57.75400000  *  151.42700000  * -43.68000000  *
   805       C         56.83800000  *  152.42500000  * -41.98700000  *
   806       H         55.87300000  *  152.48500000  * -42.49000000  *
   807       H         56.66400000  *  152.20900000  * -40.93100000  *
   808       C         57.53900000  *  153.78400000  * -42.10000000  *
   809       H         58.46500000  *  153.75700000  * -41.52400000  *
   810       H         57.76700000  *  153.98800000  * -43.14700000  *
   811       C         56.61400000  *  154.87700000  * -41.54800000  *
   812       H         55.69400000  *  154.88600000  * -42.14100000  *
   813       H         56.34300000  *  154.61900000  * -40.51900000  *
   814       N         57.25100000  *  156.21800000  * -41.57900000  *
   815       H         57.48200000  *  156.49300000  * -42.52200000  *
   816       H         56.63100000  *  156.92000000  * -41.20100000  *
   817       H         58.09700000  *  156.23600000  * -41.02900000  *
   818       C         55.59600000  *  149.82000000  * -42.91900000  *
   819       O         54.61200000  *  150.04500000  * -42.22000000  *
   820       N         55.49500000  *  149.42600000  * -44.18900000  *
   821       H         56.35000000  *  149.26300000  * -44.71300000  *
   822       C         54.20500000  *  149.26000000  * -44.85200000  *
   823       H         53.62600000  *  150.17500000  * -44.72500000  *
   824       C         54.41000000  *  148.98800000  * -46.34000000  *
   825       H         54.98900000  *  149.80200000  * -46.77700000  *
   826       H         55.00200000  *  148.07700000  * -46.45200000  *
   827       C         53.12600000  *  148.85300000  * -47.10800000  *
   828       C         52.23100000  *  149.92200000  * -47.18600000  *
   829       H         52.46300000  *  150.85600000  * -46.69900000  *
   830       C         51.01500000  *  149.79500000  * -47.88400000  *
   831       H         50.32500000  *  150.62800000  * -47.91800000  *
   832       C         50.69700000  *  148.60300000  * -48.50200000  *
   833       H         49.75200000  *  148.50200000  * -49.02000000  *
   834       C         51.58700000  *  147.52100000  * -48.43200000  *
   835       H         51.33500000  *  146.58300000  * -48.91200000  *
   836       C         52.79500000  *  147.65400000  * -47.73300000  *
   837       H         53.46700000  *  146.81000000  * -47.67200000  *
   838       C         53.37400000  *  148.12200000  * -44.22700000  *
   839       O         52.16900000  *  148.28300000  * -44.00900000  *
   840       N         54.01600000  *  146.98100000  * -43.96600000  *
   841       H         55.00900000  *  146.90600000  * -44.17900000  *
   842       C         53.33800000  *  145.83600000  * -43.34100000  *
   843       H         52.47600000  *  145.52800000  * -43.93400000  *
   844       C         54.29200000  *  144.65000000  * -43.17000000  *
   845       H         55.15800000  *  145.02700000  * -42.63600000  *
   846       H         53.80700000  *  143.89200000  * -42.54700000  *
   847       C         54.73100000  *  144.00400000  * -44.46100000  *
   848       H         53.84700000  *  143.61400000  * -44.95900000  *
   849       H         55.19200000  *  144.69400000  * -45.15000000  *
   850       S         55.79700000  *  142.58100000  * -44.15400000  *
   851       C         57.05400000  *  143.29200000  * -43.18800000  *
   852       H         56.67800000  *  143.65800000  * -42.23500000  *
   853       H         57.80700000  *  142.53400000  * -42.98200000  *
   854       H         57.44300000  *  144.07900000  * -43.80900000  *
   855       C         52.84400000  *  146.26000000  * -41.95900000  *
   856       O         51.68200000  *  146.03200000  * -41.61400000  *
   857       N         53.72600000  *  146.88400000  * -41.17900000  *
   858       H         54.70100000  *  146.95700000  * -41.45300000  *
   859       C         53.34300000  *  147.35100000  * -39.84600000  *
   860       H         53.03400000  *  146.49700000  * -39.23800000  *
   861       C         54.50500000  *  148.07700000  * -39.15700000  *
   862       H         54.94100000  *  148.81500000  * -39.83000000  *
   863       H         54.12400000  *  148.60600000  * -38.28400000  *
   864       C         55.58400000  *  147.11500000  * -38.68500000  *
   865       O         55.26200000  *  145.90900000  * -38.57600000  *
   866       O         56.73300000  *  147.55200000  * -38.41700000  *
   867       C         52.15000000  *  148.27900000  * -39.96300000  *
   868       O         51.20300000  *  148.18000000  * -39.18700000  *
   869       N         52.18300000  *  149.16200000  * -40.95500000  *
   870       H         53.01600000  *  149.23700000  * -41.51800000  *
   871       C         51.08600000  *  150.10000000  * -41.17300000  *
   872       H         50.93100000  *  150.67400000  * -40.25800000  *
   873       C         51.42800000  *  151.06800000  * -42.31500000  *
   874       H         51.45500000  *  150.53900000  * -43.26600000  *
   875       H         50.66000000  *  151.83800000  * -42.36800000  *
   876       H         52.39300000  *  151.53600000  * -42.12800000  *
   877       C         49.78900000  *  149.37000000  * -41.49900000  *
   878       O         48.71100000  *  149.83600000  * -41.15600000  *
   879       N         49.90500000  *  148.22900000  * -42.16400000  *
   880       H         50.83800000  *  147.88500000  * -42.38200000  *
   881       C         48.74000000  *  147.45400000  * -42.57500000  *
   882       H         47.85700000  *  148.08600000  * -42.62800000  *
   883       H         48.90600000  *  147.02300000  * -43.58600000  *
   884       H         48.52600000  *  146.61900000  * -41.88800000  *
   885       H         72.54500000  *  137.05800000  * -55.15200000  *
   886       C         72.38600000  *  137.90500000  * -54.47400000  *
   887       O         73.28300000  *  138.71900000  * -54.28600000  *
   888       N         71.20100000  *  138.01500000  * -53.89800000  *
   889       H         70.47300000  *  137.31400000  * -54.05700000  *
   890       C         70.96800000  *  139.10000000  * -52.94900000  *
   891       H         71.50000000  *  140.00600000  * -53.22900000  *
   892       C         69.47700000  *  139.40500000  * -52.82500000  *
   893       H         69.09300000  *  139.71900000  * -53.79200000  *
   894       H         68.93000000  *  138.50600000  * -52.53300000  *
   895       C         69.17800000  *  140.45400000  * -51.81200000  *
   896       N         69.23000000  *  140.42300000  * -50.45900000  *
   897       C         68.94700000  *  141.69100000  * -50.01400000  *
   898       H         68.96900000  *  142.01200000  * -48.98400000  *
   899       N         68.72400000  *  142.47200000  * -51.05500000  *
   900       H         68.47200000  *  143.44500000  * -51.00700000  *
   901       C         68.85400000  *  141.75000000  * -52.15500000  *
   902       H         68.77100000  *  142.12600000  * -53.16500000  *
   903       C         71.52100000  *  138.65700000  * -51.58300000  *
   904       O         72.28000000  *  139.38000000  * -50.94700000  *
   905       N         71.11400000  *  137.47100000  * -51.14500000  *
   906       H         70.37100000  *  137.01600000  * -51.66500000  *
   907       C         71.55500000  *  136.88000000  * -49.87700000  *
   908       H         71.18200000  *  135.84900000  * -49.87900000  *
   909       C         73.07600000  *  136.85300000  * -49.83700000  *
   910       H         73.53100000  *  137.83300000  * -49.86900000  *
   911       H         73.36600000  *  136.47900000  * -48.85100000  *
   912       C         73.64700000  *  135.85900000  * -50.81700000  *
   913       H         73.29800000  *  134.87100000  * -50.67200000  *
   914       H         73.21600000  *  136.10500000  * -51.78700000  *
   915       C         75.11700000  *  136.08400000  * -50.99900000  *
   916       H         75.61200000  *  135.95400000  * -50.03300000  *
   917       H         75.49500000  *  135.33200000  * -51.69500000  *
   918       N         75.35800000  *  137.42700000  * -51.50600000  *
   919       H         74.62100000  *  138.12700000  * -51.38200000  *
   920       C         76.54800000  *  137.85900000  * -51.89000000  *
   921       N         77.59300000  *  137.04400000  * -51.81500000  *
   922       H         77.44700000  *  136.21200000  * -51.26800000  *
   923       H         78.49900000  *  137.44300000  * -51.92100000  *
   924       N         76.69000000  *  139.09300000  * -52.35600000  *
   925       H         75.86000000  *  139.69200000  * -52.33800000  *
   926       H         77.56200000  *  139.47800000  * -52.67100000  *
   927       C         71.03700000  *  137.42400000  * -48.54200000  *
   928       O         71.18700000  *  136.76800000  * -47.50900000  *
   929       N         70.43700000  *  138.60400000  * -48.51600000  *
   930       H         70.32800000  *  139.16900000  * -49.34700000  *
   931       C         69.93700000  *  139.07600000  * -47.23100000  *
   932       H         69.76500000  *  138.24900000  * -46.54100000  *
   933       C         70.93500000  *  140.04200000  * -46.56200000  *
   934       H         71.90900000  *  139.56600000  * -46.50900000  *
   935       H         71.04400000  *  140.94300000  * -47.17900000  *
   936       C         70.51300000  *  140.42800000  * -45.14700000  *
   937       O         70.17200000  *  139.51500000  * -44.35500000  *
   938       O         70.51000000  *  141.64400000  * -44.82500000  *
   939       C         68.58700000  *  139.73400000  * -47.37800000  *
   940       O         68.35000000  *  140.81000000  * -46.83500000  *
   941       N         67.68700000  *  139.08300000  * -48.11000000  *
   942       H         67.94300000  *  138.20800000  * -48.54500000  *
   943       C         66.35900000  *  139.64900000  * -48.29900000  *
   944       H         66.47700000  *  140.66700000  * -48.65900000  *
   945       C         65.54600000  *  138.81300000  * -49.28800000  *
   946       H         65.58300000  *  137.78400000  * -48.94500000  *
   947       H         64.50600000  *  139.14000000  * -49.25500000  *
   948       C         66.02700000  *  138.85500000  * -50.73600000  *
   949       H         67.06400000  *  138.52800000  * -50.78200000  *
   950       C         65.17300000  *  137.91700000  * -51.58300000  *
   951       H         64.15900000  *  138.30500000  * -51.68800000  *
   952       H         65.63400000  *  137.80700000  * -52.55000000  *
   953       H         65.13400000  *  136.93500000  * -51.11000000  *
   954       C         65.92100000  *  140.27700000  * -51.26400000  *
   955       H         66.42000000  *  140.99600000  * -50.63300000  *
   956       H         66.44200000  *  140.27500000  * -52.20900000  *
   957       H         64.88200000  *  140.56100000  * -51.39700000  *
   958       C         65.59400000  *  139.73400000  * -46.98200000  *
   959       O         65.58600000  *  138.79200000  * -46.16600000  *
   960       N         64.95800000  *  140.85600000  * -46.74300000  *
   961       H         64.96600000  *  141.58800000  * -47.44100000  *
   962       C         64.17000000  *  141.06300000  * -45.54300000  *
   963       H         63.55800000  *  140.17200000  * -45.40300000  *
   964       C         65.04900000  *  141.22700000  * -44.28300000  *
   965       H         64.41300000  *  141.28800000  * -43.39900000  *
   966       H         65.64800000  *  140.32300000  * -44.16600000  *
   967       C         65.98600000  *  142.44200000  * -44.28400000  *
   968       H         66.40100000  *  142.58500000  * -45.27900000  *
   969       H         65.42900000  *  143.33200000  * -43.99600000  *
   970       C         67.13800000  *  142.18900000  * -43.30300000  *
   971       H         66.73600000  *  141.92300000  * -42.32300000  *
   972       H         67.72100000  *  141.34700000  * -43.68300000  *
   973       C         68.04200000  *  143.41800000  * -43.15800000  *
   974       H         68.13000000  *  143.91300000  * -44.13000000  *
   975       H         67.56500000  *  144.12300000  * -42.46800000  *
   976       N         69.38700000  *  143.02200000  * -42.66300000  *
   977       H         69.87000000  *  142.44200000  * -43.36300000  *
   978       H         69.95500000  *  143.83500000  * -42.45900000  *
   979       H         69.31100000  *  142.48500000  * -41.80900000  *
   980       C         63.26800000  *  142.23100000  * -45.83400000  *
   981       O         63.63000000  *  143.07500000  * -46.65300000  *
   982       N         62.11200000  *  142.30300000  * -45.18600000  *
   983       C         61.62600000  *  141.34600000  * -44.17100000  *
   984       H         62.10000000  *  141.53200000  * -43.20900000  *
   985       H         61.74500000  *  140.31100000  * -44.47600000  *
   986       C         60.16400000  *  141.66900000  * -44.09500000  *
   987       H         59.73700000  *  141.34900000  * -43.14300000  *
   988       H         59.63700000  *  141.20600000  * -44.93200000  *
   989       C         60.16000000  *  143.18900000  * -44.24800000  *
   990       H         60.51600000  *  143.64900000  * -43.32100000  *
   991       H         59.20200000  *  143.56500000  * -44.57400000  *
   992       C         61.14500000  *  143.38000000  * -45.40300000  *
   993       H         60.63400000  *  143.20500000  * -46.34500000  *
   994       C         61.77100000  *  144.77100000  * -45.44800000  *
   995       O         61.39200000  *  145.58400000  * -46.27300000  *
   996       N         62.72700000  *  145.08800000  * -44.55700000  *
   997       H         62.96700000  *  144.40000000  * -43.85900000  *
   998       C         63.44700000  *  146.38500000  * -44.53200000  *
   999       H         62.71700000  *  147.19100000  * -44.43700000  *
  1000       C         64.40300000  *  146.44800000  * -43.32700000  *
  1001       H         65.09000000  *  145.60300000  * -43.37200000  *
  1002       H         64.99700000  *  147.36100000  * -43.40600000  *
  1003       C         63.70800000  *  146.47000000  * -41.95900000  *
  1004       H         63.01600000  *  147.31200000  * -41.93000000  *
  1005       H         63.14400000  *  145.55000000  * -41.81900000  *
  1006       C         64.71300000  *  146.59400000  * -40.81100000  *
  1007       O         65.74200000  *  145.93200000  * -40.77500000  *
  1008       N         64.46000000  *  147.43000000  * -39.82800000  *
  1009       H         65.13400000  *  147.50200000  * -39.07900000  *
  1010       H         63.64200000  *  148.01900000  * -39.84300000  *
  1011       C         64.28100000  *  146.67600000  * -45.79800000  *
  1012       O         64.48800000  *  147.83200000  * -46.15700000  *
  1013       N         64.76200000  *  145.63000000  * -46.47500000  *
  1014       H         64.47000000  *  144.71000000  * -46.17700000  *
  1015       C         65.53800000  *  145.69600000  * -47.71500000  *
  1016       H         66.09700000  *  146.63300000  * -47.75000000  *
  1017       C         66.55500000  *  144.52500000  * -47.74500000  *
  1018       H         66.05700000  *  143.59600000  * -47.47900000  *
  1019       H         66.93200000  *  144.40200000  * -48.75800000  *
  1020       C         67.78100000  *  144.71300000  * -46.86100000  *
  1021       O         68.09100000  *  145.79500000  * -46.39000000  *
  1022       N         68.53200000  *  143.66400000  * -46.59800000  *
  1023       H         69.39500000  *  143.80600000  * -46.10000000  *
  1024       H         68.28000000  *  142.71700000  * -46.86900000  *
  1025       C         64.63300000  *  145.70200000  * -48.96700000  *
  1026       O         65.15500000  *  145.60700000  * -50.07500000  *
  1027       N         63.30000000  *  145.80300000  * -48.83400000  *
  1028       H         62.89500000  *  145.87300000  * -47.90900000  *
  1029       C         62.40600000  *  145.84500000  * -49.97900000  *
  1030       H         62.94700000  *  145.74800000  * -50.91900000  *
  1031       C         61.36900000  *  144.72100000  * -49.88900000  *
  1032       H         60.76900000  *  144.86100000  * -48.99200000  *
  1033       H         60.74400000  *  144.79800000  * -50.77200000  *
  1034       C         62.03600000  *  143.32400000  * -49.85900000  *
  1035       H         62.67100000  *  143.24000000  * -48.98800000  *
  1036       C         61.00200000  *  142.26000000  * -49.77100000  *
  1037       H         60.24600000  *  142.42800000  * -50.53400000  *
  1038       H         61.44700000  *  141.27100000  * -49.89000000  *
  1039       H         60.52000000  *  142.31900000  * -48.79800000  *
  1040       C         62.89500000  *  143.12600000  * -51.08400000  *
  1041       H         63.82900000  *  143.66800000  * -50.95600000  *
  1042       H         63.12900000  *  142.06900000  * -51.20900000  *
  1043       H         62.39300000  *  143.49200000  * -51.96600000  *
  1044       C         61.76300000  *  147.21800000  * -49.95200000  *
  1045       O         61.15000000  *  147.60200000  * -48.96600000  *
  1046       N         61.89500000  *  147.98400000  * -51.02800000  *
  1047       H         62.38800000  *  147.61100000  * -51.83400000  *
  1048       C         61.43400000  *  149.37100000  * -51.07100000  *
  1049       H         61.05500000  *  149.68000000  * -50.09900000  *
  1050       C         62.58400000  *  150.29200000  * -51.44900000  *
  1051       H         62.93500000  *  150.02500000  * -52.44700000  *
  1052       H         62.19500000  *  151.30800000  * -51.47200000  *
  1053       C         63.76400000  *  150.23600000  * -50.48100000  *
  1054       H         64.22500000  *  149.25000000  * -50.51300000  *
  1055       C         64.76500000  *  151.27000000  * -50.95200000  *
  1056       H         64.40800000  *  152.26400000  * -50.69600000  *
  1057       H         65.71800000  *  151.06800000  * -50.48100000  *
  1058       H         64.89800000  *  151.22200000  * -52.02900000  *
  1059       C         63.36800000  *  150.55900000  * -49.04200000  *
  1060       H         62.78300000  *  149.73500000  * -48.64200000  *
  1061       H         64.24900000  *  150.67000000  * -48.42000000  *
  1062       H         62.78000000  *  151.47800000  * -49.00500000  *
  1063       C         60.30700000  *  149.54400000  * -52.06200000  *
  1064       O         60.39300000  *  149.07400000  * -53.18300000  *
  1065       N         59.26800000  *  150.25600000  * -51.67700000  *
  1066       H         59.36500000  *  150.76300000  * -50.80000000  *
  1067       C         58.08300000  *  150.44700000  * -52.50800000  *
  1068       H         58.17300000  *  149.92400000  * -53.45700000  *
  1069       C         56.81900000  *  149.90600000  * -51.78600000  *
  1070       H         55.94300000  *  150.08700000  * -52.41500000  *
  1071       C         56.95000000  *  148.40400000  * -51.54300000  *
  1072       H         57.75300000  *  148.18300000  * -50.83300000  *
  1073       H         56.01300000  *  148.00400000  * -51.15200000  *
  1074       H         57.15800000  *  147.91500000  * -52.48900000  *
  1075       C         56.64700000  *  150.60600000  * -50.43300000  *
  1076       H         57.48200000  *  150.38000000  * -49.77500000  *
  1077       H         56.60500000  *  151.68300000  * -50.57600000  *
  1078       C         55.37000000  *  150.22200000  * -49.68600000  *
  1079       H         55.48900000  *  149.24800000  * -49.22200000  *
  1080       H         55.17000000  *  150.96500000  * -48.91000000  *
  1081       H         54.52900000  *  150.16800000  * -50.38500000  *
  1082       C         57.87200000  *  151.93000000  * -52.81700000  *
  1083       O         58.38200000  *  152.79400000  * -52.10000000  *
  1084       N         57.14900000  *  152.22000000  * -53.89700000  *
  1085       H         56.70500000  *  151.48200000  * -54.43300000  *
  1086       C         56.84100000  *  153.60200000  * -54.22700000  *
  1087       H         57.16800000  *  154.27800000  * -53.43100000  *
  1088       C         57.50400000  *  154.05300000  * -55.54100000  *
  1089       H         57.21800000  *  155.07000000  * -55.80500000  *
  1090       H         58.58200000  *  154.04400000  * -55.38800000  *
  1091       C         57.19300000  *  153.14600000  * -56.70100000  *
  1092       O         56.13500000  *  152.53500000  * -56.76400000  *
  1093       N         58.11500000  *  153.07200000  * -57.64100000  *
  1094       H         57.83300000  *  152.61700000  * -58.48600000  *
  1095       H         58.88600000  *  153.71500000  * -57.62100000  *
  1096       C         55.33100000  *  153.75800000  * -54.32100000  *
  1097       O         54.57600000  *  152.79900000  * -54.11400000  *
  1098       N         54.88500000  *  154.97100000  * -54.62100000  *
  1099       H         55.52100000  *  155.73600000  * -54.79200000  *
  1100       C         53.46400000  *  155.24700000  * -54.72300000  *
  1101       H         52.92700000  *  154.82600000  * -53.87200000  *
  1102       C         53.20900000  *  156.78000000  * -54.75500000  *
  1103       H         52.16900000  *  156.98000000  * -55.02600000  *
  1104       C         53.47800000  *  157.39700000  * -53.41000000  *
  1105       H         54.52100000  *  157.25500000  * -53.13000000  *
[...]
 1005  H   0.83041
 1006  C   1.06526   0.79733   0.73451   0.79794
 1007  O   1.87745   1.40294   1.58273   1.83341
 1008  N   1.52714   1.34434   1.42416   1.30439
 1009  H   0.65717
 1010  H   0.66176
 1011  C   1.08368   0.75581   0.78107   0.81502
 1012  O   1.88431   1.66156   1.31200   1.73335
 1013  N   1.55187   1.50815   1.20267   1.30155
 1014  H   0.66578
 1015  C   1.07288   0.94575   1.09502   0.82064
 1016  H   0.80259
 1017  C   1.07044   1.04886   1.09195   1.16375
 1018  H   0.83120
 1019  H   0.79606
 1020  C   1.05924   0.80500   0.76602   0.75670
 1021  O   1.87635   1.76887   1.40022   1.61958
 1022  N   1.53178   1.31738   1.19626   1.58038
 1023  H   0.66862
 1024  H   0.65385
 1025  C   1.08777   0.78521   0.71970   0.85246
 1026  O   1.87838   1.76735   1.61023   1.38121
 1027  N   1.54114   1.12604   1.66444   1.18356
 1028  H   0.65369
 1029  C   1.06991   0.96907   0.97992   0.97448
 1030  H   0.81121
 1031  C   1.06732   1.06448   0.99771   1.17288
 1032  H   0.83712
 1033  H   0.84805
 1034  C   1.04100   1.01195   0.94632   1.06209
 1035  H   0.85591
 1036  C   1.04921   1.12581   1.11839   1.17084
 1037  H   0.84482
 1038  H   0.84890
 1039  H   0.86559
 1040  C   1.05157   1.14146   1.17184   1.09922
 1041  H   0.84483
 1042  H   0.85754
 1043  H   0.84976
 1044  C   1.07650   0.74985   0.84255   0.75583
 1045  O   1.87200   1.53772   1.79674   1.44508
 1046  N   1.54581   1.55308   1.17372   1.24870
 1047  H   0.64552
 1048  C   1.06372   0.98753   0.82878   1.10053
 1049  H   0.81339
 1050  C   1.06405   1.02869   1.10620   1.12184
 1051  H   0.84580
 1052  H   0.84032
 1053  C   1.04752   0.97240   1.07022   0.96563
 1054  H   0.86542
 1055  C   1.05351   1.12825   1.12893   1.16375
 1056  H   0.84561
 1057  H   0.84917
 1058  H   0.85885
 1059  C   1.05439   1.17373   1.17421   1.05172
 1060  H   0.84131
 1061  H   0.85203
 1062  H   0.84671
 1063  C   1.07337   0.79973   0.74485   0.81736
 1064  O   1.86787   1.83055   1.62588   1.34410
 1065  N   1.54026   1.19576   1.46354   1.29665
 1066  H   0.64420
 1067  C   1.07616   0.88968   1.00776   1.04226
 1068  H   0.80930
 1069  C   1.06433   1.01542   0.99282   1.01962
 1070  H   0.85017
 1071  C   1.05465   1.18113   1.03421   1.17660
 1072  H   0.84350
 1073  H   0.84505
 1074  H   0.85306
 1075  C   1.05401   1.06964   1.12051   1.03129
 1076  H   0.84556
 1077  H   0.86073
 1078  C   1.05247   1.08954   1.15710   1.13159
 1079  H   0.84829
 1080  H   0.87856
 1081  H   0.84679
 1082  C   1.08599   0.74321   0.88726   0.74307
 1083  O   1.88688   1.56801   1.57598   1.55646
 1084  N   1.54289   1.50721   1.14420   1.33756
 1085  H   0.64367
 1086  C   1.06246   0.97190   0.88411   1.03791
 1087  H   0.80300
 1088  C   1.07248   1.18072   1.12768   1.02351
 1089  H   0.80936
 1090  H   0.80527
 1091  C   1.06100   0.76135   0.77043   0.82340
 1092  O   1.88009   1.35564   1.56933   1.83592
 1093  N   1.53425   1.29791   1.49520   1.27248
 1094  H   0.67174
 1095  H   0.66518
 1096  C   1.08289   0.88455   0.75909   0.71261
 1097  O   1.88770   1.65436   1.46879   1.58961
 1098  N   1.54007   1.14499   1.19764   1.67166
 1099  H   0.66294
 1100  C   1.08552   0.83748   1.05829   1.08224
 1101  H   0.80377
 1102  C   1.08424   0.99144   0.86681   0.88981
 1103  H   0.84689
 1104  C   1.05384   1.18432   1.18008   1.05462
 1105  H   0.84110
 1106  H   0.82440
 1107  H   0.82925
 1108  O   1.84888   1.59202   1.82284   1.34497
 1109  H   0.64286
 1110  C   1.07339   0.78886   0.75521   0.82416
 1111  O   1.87782   1.28010   1.68925   1.84897
 1112  N   1.53334   1.19354   1.53455   1.21096
 1113  H   0.66705
 1114  C   1.05708   1.15374   1.13340   0.89317
 1115  H   0.83542
 1116  H   0.83782
 1117  H   0.83542
 1118  H   0.83965
 1119  C   1.10505   0.75505   0.73547   0.91352
 1120  O   1.88313   1.71073   1.59666   1.48267
 1121  N   1.54488   1.42789   1.34574   1.20824
 1122  H   0.65363
 1123  C   1.08082   0.93070   1.08482   0.93145
 1124  H   0.80877
 1125  C   1.07312   1.07901   0.95367   0.98250
 1126  H   0.84408
 1127  C   1.05810   1.18710   1.08408   1.12931
 1128  H   0.84356
 1129  H   0.84845
 1130  H   0.85208
 1131  C   1.05415   1.07579   1.13474   1.01863
 1132  H   0.85371
 1133  H   0.85426
 1134  C   1.04918   1.14383   1.15090   1.09054
 1135  H   0.85001
 1136  H   0.85976
 1137  H   0.84950
 1138  C   1.07232   0.84175   0.73633   0.77747
 1139  O   1.87772   1.89050   1.52104   1.39090
 1140  N   1.54506   1.10259   1.52673   1.33590
 1141  H   0.63198
 1142  C   1.06985   0.84638   1.05351   1.03779
 1143  H   0.81779
 1144  C   1.06006   1.09275   1.04615   1.09594
 1145  H   0.83695
 1146  H   0.84642
 1147  C   1.05106   1.08561   1.04447   1.07796
 1148  H   0.84978
 1149  H   0.84472
 1150  C   1.05934   1.08213   1.05480   1.09814
 1151  H   0.84148
 1152  H   0.83233
 1153  C   1.07887   1.02195   0.99744   1.07424
 1154  H   0.81139
 1155  H   0.83357
 1156  N   1.45911   1.23083   1.22874   1.25622
 1157  H   0.69538
 1158  H   0.70011
 1159  H   0.68611
 1160  C   1.07841   0.77971   0.75032   0.82538
 1161  O   1.88105   1.77264   1.69333   1.29091
 1162  N   1.54485   1.32877   1.42522   1.23102
 1163  H   0.64015
 1164  C   1.07027   0.91847   0.95756   1.02936
 1165  H   0.83187
 1166  C   1.06279   1.10010   1.01944   1.13282
 1167  H   0.83517
 1168  H   0.84505
 1169  C   1.05374   1.07063   0.96082   0.96359
 1170  H   0.85944
 1171  C   1.06224   1.16620   1.13947   1.09213
 1172  H   0.85191
 1173  H   0.84901
 1174  H   0.85259
 1175  C   1.05740   1.18283   1.13708   1.08863
 1176  H   0.85367
 1177  H   0.84800
 1178  H   0.85429
 1179  C   1.08515   0.79127   0.79845   0.75831
 1180  O   1.88080   1.63495   1.59978   1.53775
 1181  N   1.54402   1.37154   1.43548   1.15970
 1182  H   0.64629
 1183  C   1.06747   0.91301   0.92745   1.04872
 1184  H   0.83234
 1185  C   1.05932   1.16288   1.08888   1.15143
 1186  H   0.82110
 1187  H   0.83258
 1188  H   0.82778
 1189  C   1.08868   0.78830   0.78387   0.74609
 1190  O   1.87279   1.84574   1.36266   1.58867
 1191  N   1.54647   1.16935   1.32862   1.49039
 1192  H   0.67241
 1193  C   1.07460   0.88143   1.07664   0.93300
 1194  H   0.81894
 1195  C   1.07858   1.14149   1.18657   1.00580
 1196  H   0.81022
 1197  H   0.82910
 1198  C   1.07245   0.74627   0.73841   0.68288
 1199  O   1.88821   1.70086   1.46198   1.67529
 1200  O   1.87255   1.78509   1.46748   1.75794
 1201  C   1.09098   0.81712   0.79690   0.74266
 1202  O   1.88724   1.28020   1.81342   1.57081
 1203  N   1.56676   1.29218   1.16827   1.54056
 1204  H   0.67930
 1205  C   1.07961   1.02061   0.91775   0.95278
 1206  H   0.83945
 1207  C   1.05575   1.07773   1.20282   0.96294
 1208  H   0.81392
 1209  H   0.81929
 1210  C   1.07468   0.97359   0.97733   0.97002
 1211  C   1.09012   1.04120   1.04150   1.01394
 1212  H   0.83941
 1213  C   1.08874   0.98517   1.06194   1.01007
 1214  H   0.84207
 1215  C   1.08747   1.05984   0.99160   1.03210
 1216  H   0.84765
 1217  C   1.08930   1.03697   1.03619   0.98958
 1218  H   0.83216
 1219  C   1.08703   0.98656   1.06383   1.02442
 1220  H   0.83901
 1221  C   1.08926   0.80303   0.77315   0.76344
 1222  O   1.88516   1.44479   1.56028   1.71465
 1223  N   1.53908   1.41470   1.43640   1.13582
 1224  H   0.68318
 1225  C   1.06829   0.98824   1.06750   0.98197
 1226  H   0.81582
 1227  H   0.80638
 1228  C   1.07976   0.82846   0.77850   0.70343
 1229  O   1.87702   1.84067   1.32375   1.61013
 1230  N   1.55905   1.30123   1.23422   1.44914
 1231  H   0.67415
 1232  C   1.07773   0.89854   1.03260   0.96982
 1233  H   0.83214
 1234  C   1.06795   1.11373   0.95101   1.17417
 1235  H   0.84066
 1236  H   0.82798
 1237  C   1.05198   1.03283   0.95956   1.01285
 1238  H   0.86137
 1239  C   1.05579   1.16864   1.06873   1.15981
 1240  H   0.85730
 1241  H   0.84423
 1242  H   0.85982
 1243  C   1.05565   1.17160   1.18972   1.04537
 1244  H   0.84076
 1245  H   0.84067
 1246  H   0.85769
 1247  C   1.09496   0.85769   0.76633   0.72740
 1248  O   1.88132   1.32402   1.78560   1.59288
 1249  N   1.58217   1.28187   1.23296   1.52142
 1250  H   0.66089
 1251  C   1.06867   0.96472   0.99755   0.95398
 1252  H   0.83604
 1253  C   1.05860   1.13943   1.09728   1.17435
 1254  H   0.84392
 1255  H   0.80976
 1256  H   0.81093
 1257  C   1.07570   0.83411   0.75246   0.78156
 1258  O   1.88396   1.49901   1.59907   1.64922
 1259  N   1.54299   1.31151   1.51238   1.14409
 1260  H   0.67642
 1261  C   1.06250   0.92402   1.14576   1.10582
 1262  H   0.82620
 1263  H   0.82966
 1264  H   0.83893
 1265  H   0.84137
 1266  C   1.10471   0.72491   0.79426   0.87706
 1267  O   1.88386   1.53300   1.36159   1.88309
 1268  N   1.54280   1.48744   1.35120   1.14843
 1269  H   0.67742
 1270  C   1.07279   1.11699   0.96739   0.82274
 1271  H   0.80255
 1272  C   1.05755   1.09023   1.02778   1.15037
 1273  H   0.83875
 1274  H   0.82124
 1275  C   1.06433   0.97781   0.95000   0.96839
 1276  C   1.08285   1.02013   0.99425   1.05918
 1277  H   0.83904
 1278  C   1.08235   1.04690   1.02719   0.99759
 1279  H   0.84424
 1280  C   1.08129   1.00675   1.05590   1.02625
 1281  H   0.84954
 1282  C   1.08068   1.02447   1.00400   1.05474
 1283  H   0.85528
 1284  C   1.08277   1.05894   1.02583   0.99575
 1285  H   0.84058
 1286  C   1.08013   0.76668   0.78611   0.79914
 1287  O   1.88376   1.53945   1.68074   1.53408
 1288  N   1.53640   1.17546   1.34762   1.43110
 1289  H   0.67311
 1290  C   1.05782   1.14239   0.97580   0.99839
 1291  H   0.81509
 1292  H   0.78883
 1293  C   1.07427   0.78788   0.75728   0.80192
 1294  O   1.88065   1.54140   1.38384   1.84183
 1295  N   1.53614   1.41015   1.37740   1.17736
 1296  H   0.65051
 1297  C   1.07419   1.00274   1.19841   0.87818
 1298  H   0.81308
 1299  H   0.79415
 1300  C   1.08205   0.77428   0.74506   0.80736
 1301  O   1.88290   1.52148   1.53238   1.73136
 1302  N   1.56475   1.44493   1.16595   1.26738
 1303  C   1.07078   1.06926   0.87114   1.05682
 1304  H   0.83636
 1305  H   0.84077
 1306  C   1.05709   1.04762   1.13527   1.05879
 1307  H   0.84534
 1308  H   0.80795
 1309  C   1.06100   1.08147   0.98343   1.17243
 1310  H   0.83533
 1311  H   0.81894
 1312  C   1.07353   1.05286   1.00113   0.86819
 1313  H   0.81303
 1314  C   1.08825   0.76383   0.76840   0.82884
 1315  O   1.88394   1.42698   1.43535   1.88341
 1316  N   1.54310   1.40334   1.48374   1.11755
 1317  H   0.64352
 1318  C   1.08223   1.04975   1.11427   0.89100
 1319  H   0.80069
 1320  H   0.78724
 1321  C   1.08830   0.82553   0.73026   0.77837
 1322  O   1.88491   1.70327   1.72958   1.32949
 1323  N   1.55116   1.23256   1.41123   1.34466
 1324  H   0.68853
 1325  C   1.07572   0.85975   1.06404   0.97859
 1326  H   0.82214
 1327  C   1.05961   1.16903   1.07542   0.97625
 1328  H   0.83486
 1329  H   0.83869
 1330  C   1.05818   1.13846   1.07484   1.02408
 1331  H   0.82466
 1332  H   0.87157
 1333  C   1.06376   1.08744   1.09997   0.78140
 1334  H   0.85049
 1335  H   0.81938
 1336  N   1.53282   1.62699   1.28989   1.09342
 1337  H   0.64882
 1338  C   0.97600   0.83629   0.80288   0.79449
 1339  N   1.50147   1.56332   1.25851   1.24812
 1340  H   0.67467
 1341  H   0.62636
 1342  N   1.50407   1.55700   1.35355   1.14117
 1343  H   0.64455
 1344  H   0.63719
 1345  C   1.08252   0.75743   0.77390   0.84362
 1346  O   1.88760   1.48116   1.64730   1.56810
 1347  N   1.54322   1.54502   1.19773   1.24129
 1348  H   0.67355
 1349  C   1.09006   0.99984   1.00976   0.91786
 1350  H   0.79844
 1351  C   1.08618   0.92904   0.92616   0.87505
 1352  H   0.84769
 1353  C   1.05834   1.09873   1.12896   1.20317
 1354  H   0.82606
 1355  H   0.83415
 1356  H   0.83102
 1357  O   1.84250   1.58417   1.64218   1.57293
 1358  H   0.62517
 1359  C   1.07893   0.80814   0.78900   0.75816
 1360  O   1.88632   1.54269   1.79559   1.37673
 1361  N   1.55287   1.32707   1.29612   1.37729
 1362  H   0.65191
 1363  C   1.07399   0.98907   0.92739   0.99338
 1364  H   0.81750
 1365  C   1.05776   1.09606   1.06827   1.08594
 1366  H   0.84123
 1367  H   0.82950
 1368  C   1.06112   0.97121   0.97489   1.05905
 1369  C   1.08300   0.97328   1.07992   0.99332
 1370  H   0.84450
 1371  C   1.08223   1.08039   0.99534   1.01437
 1372  H   0.80852
 1373  C   1.06604   0.82618   0.89527   0.91289
 1374  O   1.84140   1.46879   1.54012   1.69581
 1375  H   0.63866
 1376  C   1.07378   0.99051   1.09225   1.07027
 1377  H   0.84709
 1378  C   1.08160   1.06412   0.99853   0.99554
 1379  H   0.85903
 1380  C   1.08203   0.77635   0.73403   0.82118
 1381  O   1.88473   1.39068   1.55624   1.82946
 1382  N   1.55036   1.20068   1.60158   1.14807
 1383  H   0.66066
 1384  C   1.08718   1.11694   1.03483   0.83749
 1385  H   0.82138
 1386  C   1.08253   0.83229   0.89071   1.00025
 1387  H   0.86839
 1388  C   1.05717   1.09859   1.14102   1.18957
 1389  H   0.83102
 1390  H   0.84551
 1391  H   0.84166
 1392  O   1.84702   1.32385   1.76616   1.66684
 1393  H   0.61650
 1394  C   1.08210   0.82825   0.76382   0.79213
 1395  O   1.88733   1.29179   1.70630   1.67727
 1396  N   1.54294   1.22798   1.27097   1.47592
 1397  H   0.64945
 1398  C   1.07061   0.98390   1.04050   1.07617
 1399  H   0.84408
 1400  H   0.80873
 1401  C   1.07033   0.85081   0.72015   0.75161
 1402  O   1.88496   1.70093   1.45768   1.55962
 1403  N   1.55352   1.14743   1.51357   1.33246
 1404  H   0.67993
 1405  C   1.07065   0.82923   0.98744   1.12896
 1406  H   0.81458
 1407  C   1.05329   1.16403   0.98964   1.05220
 1408  H   0.83894
 1409  H   0.83626
 1410  C   1.05980   1.20522   1.01230   1.13846
 1411  H   0.84318
 1412  H   0.82628
 1413  C   1.06682   0.72313   0.72059   0.72850
 1414  O   1.88773   1.47145   1.82237   1.63592
 1415  O   1.88494   1.51863   1.58684   1.81475
 1416  C   1.08682   0.77112   0.86259   0.75469
 1417  O   1.88735   1.64827   1.65285   1.40924
 1418  N   1.54586   1.31038   1.19190   1.47864
 1419  H   0.65331
 1420  C   1.07213   1.06271   0.88124   1.00755
 1421  H   0.84367
 1422  C   1.05449   1.01869   1.03226   0.97094
 1423  H   0.83625
 1424  C   1.05592   1.17746   1.04877   1.19328
 1425  H   0.84539
 1426  H   0.83583
 1427  H   0.83797
 1428  C   1.05456   1.18134   1.16761   1.06145
 1429  H   0.84073
 1430  H   0.83982
 1431  H   0.85198
 1432  C   1.07569   0.77097   0.73156   0.84213
 1433  O   1.88365   1.36381   1.63756   1.76960
 1434  N   1.53828   1.27317   1.47268   1.21106
 1435  H   0.66894
 1436  C   1.07704   1.00704   1.05460   0.86796
 1437  H   0.82273
 1438  C   1.06064   1.02665   1.01600   0.97664
 1439  H   0.84049
 1440  C   1.05420   1.18419   1.09832   1.12137
 1441  H   0.84084
 1442  H   0.84089
 1443  H   0.85070
 1444  C   1.05740   1.18963   1.16688   1.05268
 1445  H   0.84601
 1446  H   0.83578
 1447  H   0.83870
 1448  C   1.08153   0.80664   0.78643   0.75130
 1449  O   1.88317   1.81150   1.47323   1.46035
 1450  N   1.53604   1.23678   1.43128   1.31670
 1451  H   0.66436
 1452  C   1.07956   0.90444   0.96827   1.14824
 1453  H   0.80521
 1454  C   1.07974   0.93523   0.82451   0.98311
 1455  H   0.86657
 1456  C   1.05746   1.09512   1.13586   1.19622
 1457  H   0.82485
 1458  H   0.82204
 1459  H   0.84134
 1460  O   1.84758   1.47769   1.49395   1.78191
 1461  H   0.64881
 1462  C   1.07073   0.75361   0.82648   0.79812
 1463  O   1.88055   1.50722   1.88262   1.36452
 1464  N   1.53716   1.55020   1.12175   1.29443
 1465  H   0.65707
 1466  C   1.05410   1.16779   0.87320   1.13586
 1467  H   0.83022
 1468  H   0.83675
 1469  H   0.85123
 1470  H   0.82726
 1471  C   1.10850   0.72195   0.77565   0.90302
 1472  O   1.87918   1.50022   1.39719   1.89103
 1473  N   1.54808   1.50773   1.35867   1.13688
 1474  H   0.67062
 1475  C   1.07820   1.08320   1.04086   0.80199
 1476  H   0.80367
 1477  C   1.05901   1.13421   0.99954   1.10165
 1478  H   0.81856
 1479  H   0.82214
 1480  C   1.06594   0.97591   0.99300   1.00554
 1481  C   1.08234   0.99073   1.02465   1.00445
 1482  H   0.83761
 1483  C   1.07637   1.10514   1.04981   1.06622
 1484  H   0.82033
 1485  C   1.07256   0.88645   0.88191   0.87957
 1486  O   1.83868   1.35508   1.61297   1.73274
 1487  H   0.61906
 1488  C   1.07842   0.98860   1.10012   1.09719
 1489  H   0.82132
 1490  C   1.08813   1.07850   0.97885   0.96900
 1491  H   0.83521
 1492  C   1.08085   0.79997   0.76891   0.79201
 1493  O   1.88631   1.81382   1.69952   1.28032
 1494  N   1.53470   1.25583   1.50889   1.18460
 1495  H   0.67095
 1496  C   1.06143   0.92033   1.08960   1.16683
 1497  H   0.83435
 1498  H   0.82969
 1499  H   0.83843
 1500  H   0.82486
 1501  C   1.10804   0.78633   0.88375   0.71616
 1502  O   1.88011   1.43050   1.87065   1.50911
 1503  N   1.55068   1.37512   1.18535   1.44524
 1504  H   0.64441
 1505  C   1.07867   0.96573   0.86325   1.12907
 1506  H   0.81496
 1507  C   1.05975   0.97992   0.99669   1.07641
 1508  H   0.84638
 1509  C   1.05207   1.15822   1.06261   1.17611
 1510  H   0.84446
 1511  H   0.84456
 1512  H   0.84176
 1513  C   1.04784   0.99989   1.12971   1.08497
 1514  H   0.86676
 1515  H   0.85356
 1516  C   1.04904   1.11602   1.12956   1.14939
 1517  H   0.85867
 1518  H   0.85747
 1519  H   0.84114
 1520  C   1.07242   0.85960   0.73797   0.75024
 1521  O   1.87627   1.57603   1.55603   1.67379
 1522  N   1.54217   1.18498   1.41741   1.37463
 1523  H   0.66203
 1524  C   1.07135   0.87895   1.16328   1.10827
 1525  H   0.84315
 1526  H   0.83224
 1527  H   0.83419
 1528  H   0.82767
 1529  C   1.10752   0.84811   0.73329   0.82094
 1530  O   1.88532   1.81643   1.62641   1.36683
 1531  N   1.53778   1.25348   1.40293   1.30524
 1532  H   0.64793
 1533  C   1.05916   0.89148   1.04101   1.02443
 1534  H   0.81937
 1535  C   1.06064   1.03213   1.11498   1.11419
 1536  H   0.82486
 1537  H   0.84738
 1538  C   1.04451   0.99043   0.96307   1.06032
 1539  H   0.87998
 1540  C   1.05448   1.16243   1.06820   1.18065
 1541  H   0.83877
 1542  H   0.84800
 1543  H   0.85374
 1544  C   1.05255   1.12343   1.17280   1.10787
 1545  H   0.85726
 1546  H   0.84706
 1547  H   0.84147
 1548  C   1.07844   0.72969   0.86436   0.77480
 1549  O   1.88174   1.57715   1.45166   1.73573
 1550  N   1.54012   1.57152   1.21321   1.19367
 1551  H   0.66028
 1552  C   1.07166   1.02180   0.93428   0.96034
 1553  H   0.81204
 1554  C   1.05666   1.17025   1.07928   0.99293
 1555  H   0.82468
 1556  H   0.82636
 1557  C   1.05680   1.12992   1.08841   1.03625
 1558  H   0.85355
 1559  H   0.82376
 1560  C   1.06367   1.15813   0.94507   0.90236
 1561  H   0.81565
 1562  H   0.83646
 1563  N   1.52413   1.16124   1.42466   1.39829
 1564  H   0.63938
 1565  C   0.99156   0.79147   0.81259   0.81869
 1566  N   1.51738   1.11697   1.46803   1.48671
 1567  H   0.65520
 1568  H   0.63908
 1569  N   1.50862   1.25117   1.39995   1.41130
 1570  H   0.64166
 1571  H   0.64059
 1572  C   1.08225   0.87364   0.77345   0.74748
 1573  O   1.88836   1.60497   1.59483   1.52054
 1574  N   1.53999   1.17422   1.27251   1.51851
 1575  H   0.65806
 1576  C   1.07420   0.85749   1.08583   1.03744
 1577  H   0.82131
 1578  C   1.06135   1.16347   1.09804   0.98456
 1579  H   0.84243
 1580  H   0.83906
 1581  C   1.04759   1.08163   0.95979   0.94845
 1582  H   0.86923
 1583  C   1.05592   1.17145   1.16303   1.07753
 1584  H   0.85398
 1585  H   0.86081
 1586  H   0.84719
 1587  C   1.05672   1.15723   1.09315   1.15815
 1588  H   0.85014
 1589  H   0.86055
 1590  H   0.84748
 1591  C   1.08309   0.71438   0.76146   0.70259
 1592  O   1.88391   1.46803   1.86972   1.62366
 1593  O   1.88758   1.54742   1.59436   1.80332

 **********************
 *                    *
 * JOB ENDED NORMALLY *
 *                    *
 **********************



 TOTAL JOB TIME:          2984.89 SECONDS

 == MOPAC DONE ==
