 *******************************************************************************
 **                                                                           **
 **                              MOPAC v23.2.2                                **
 **                                                                           **
 *******************************************************************************
 **          Digital Object Identifier (DOI): 10.5281/zenodo.6511958          **
 **    Visit the DOI location for information on how to cite this program.    **
 *******************************************************************************

                              PM7 CALCULATION RESULTS

 *******************************************************************************
 *  CALCULATION DONE: (MAX THREADS = 24)             Thu Jan 22 18:12:31 2026  *
 *  PM7        - The PM7 Hamiltonian to be used
 *
 *
 *
 *                 CHARGE ON SYSTEM = +2
 *
 *
 *
 *  EPS=78.4   - USE ANDREAS KLAMT'S COSMO IMPLICIT SOLVATION MODEL
 *  XYZ        - CARTESIAN COORDINATE SYSTEM TO BE USED
 *  1SCF       - DO 1 SCF AND THEN STOP 
 *  T=         - A TIME OF 172800.0 SECONDS REQUESTED
 *  DUMP=N     - RESTART FILE WRITTEN EVERY 7200.0 SECONDS REQUESTED
 *******************************************************************************
PM7 1SCF XYZ CHARGE=2 EPS=78.4


   ATOM   CHEMICAL          X               Y               Z
  NUMBER   SYMBOL      (ANGSTROMS)     (ANGSTROMS)     (ANGSTROMS)

     1       H         71.69100000  *  165.23700000  * -45.36000000  *
     2       C         70.72700000  *  165.64400000  * -45.02500000  *
     3       O         70.67100000  *  166.69300000  * -44.40000000  *
     4       N         69.64800000  *  164.94600000  * -45.35400000  *
     5       H         69.74300000  *  164.08600000  * -45.86500000  *
     6       C         68.31800000  *  165.37700000  * -44.95100000  *
     7       H         68.30400000  *  166.44500000  * -44.75000000  *
     8       C         67.27900000  *  165.08100000  * -46.05800000  *
     9       H         67.27200000  *  164.02200000  * -46.29800000  *
    10       C         65.89200000  *  165.46600000  * -45.59200000  *
    11       H         65.46400000  *  166.22900000  * -46.24500000  *
    12       H         65.23700000  *  164.60600000  * -45.62700000  *
    13       H         65.87600000  *  165.89500000  * -44.58400000  *
    14       C         67.63700000  *  165.85600000  * -47.31700000  *
    15       H         68.59400000  *  165.52900000  * -47.70800000  *
    16       H         66.87900000  *  165.66900000  * -48.07700000  *
    17       H         67.68800000  *  166.92100000  * -47.10100000  *
    18       C         67.91500000  *  164.66400000  * -43.65700000  *
    19       O         67.55300000  *  165.30600000  * -42.67600000  *
    20       N         67.98400000  *  163.33800000  * -43.65800000  *
    21       H         68.28400000  *  162.85200000  * -44.48600000  *
    22       C         67.62300000  *  162.54400000  * -42.48700000  *
    23       H         67.90600000  *  163.07600000  * -41.58100000  *
    24       C         66.12800000  *  162.23500000  * -42.45900000  *
    25       H         65.92600000  *  161.47400000  * -43.20900000  *
    26       H         65.88500000  *  161.80700000  * -41.48800000  *
    27       C         65.21300000  *  163.39800000  * -42.74000000  *
    28       H         65.33100000  *  164.15700000  * -41.96400000  *
    29       H         65.45900000  *  163.81400000  * -43.69700000  *
    30       C         63.76600000  *  162.97200000  * -42.82400000  *
    31       O         63.44700000  *  162.11400000  * -43.67900000  *
    32       O         62.94800000  *  163.49400000  * -42.03400000  *
    33       C         68.34700000  *  161.22200000  * -42.57700000  *
    34       O         68.73000000  *  160.78800000  * -43.66100000  *
    35       N         68.52400000  *  160.57500000  * -41.43500000  *
    36       H         68.03000000  *  160.89100000  * -40.60600000  *
    37       C         69.17300000  *  159.28200000  * -41.42100000  *
    38       H         69.95100000  *  159.22100000  * -42.17800000  *
    39       C         69.75600000  *  159.01000000  * -40.03200000  *
    40       H         70.21900000  *  159.94300000  * -39.71800000  *
    41       H         68.96300000  *  158.79100000  * -39.31600000  *
    42       C         70.79800000  *  157.89600000  * -39.98300000  *
    43       H         70.31100000  *  156.94100000  * -40.17400000  *
    44       H         71.53800000  *  158.07300000  * -40.76900000  *
    45       C         71.50100000  *  157.83200000  * -38.61800000  *
    46       H         70.74900000  *  157.59000000  * -37.86000000  *
    47       H         72.23100000  *  157.01800000  * -38.63800000  *
    48       C         72.18600000  *  159.16200000  * -38.26900000  *
    49       H         72.83200000  *  159.42500000  * -39.10900000  *
    50       H         71.41200000  *  159.93100000  * -38.15600000  *
    51       N         73.00000000  *  159.10500000  * -37.02500000  *
    52       H         73.70000000  *  158.37000000  * -37.07400000  *
    53       H         73.43800000  *  159.98800000  * -36.79300000  *
    54       H         72.39100000  *  158.85400000  * -36.25100000  *
    55       C         68.06200000  *  158.28700000  * -41.74800000  *
    56       O         67.16300000  *  158.08100000  * -40.94600000  *
    57       N         68.05700000  *  157.71000000  * -42.95500000  *
    58       H         68.86500000  *  157.85700000  * -43.54000000  *
    59       C         67.04400000  *  156.72500000  * -43.39700000  *
    60       H         66.06800000  *  157.21400000  * -43.41300000  *
    61       C         67.34500000  *  156.20900000  * -44.82800000  *
    62       H         68.42200000  *  156.10500000  * -44.94000000  *
    63       C         66.70800000  *  154.84200000  * -45.13000000  *
    64       H         65.63200000  *  154.88500000  * -44.95200000  *
    65       H         66.88500000  *  154.57000000  * -46.16300000  *
    66       H         67.14800000  *  154.05500000  * -44.51800000  *
    67       C         66.84200000  *  157.24000000  * -45.85000000  *
    68       H         65.75100000  *  157.22100000  * -45.88800000  *
    69       H         67.14100000  *  158.22100000  * -45.49700000  *
    70       C         67.40000000  *  157.04400000  * -47.26800000  *
    71       H         67.00600000  *  156.13700000  * -47.71600000  *
    72       H         67.11400000  *  157.88600000  * -47.89500000  *
    73       H         68.48500000  *  156.98400000  * -47.23900000  *
    74       C         66.92500000  *  155.56500000  * -42.40900000  *
    75       O         65.82200000  *  155.20700000  * -41.99200000  *
    76       N         68.06100000  *  154.95600000  * -42.07100000  *
    77       H         68.93900000  *  155.31300000  * -42.42700000  *
    78       C         68.08100000  *  153.70000000  * -41.33700000  *
    79       H         67.46200000  *  153.79800000  * -40.44400000  *
    80       H         67.66400000  *  152.91100000  * -41.96200000  *
    81       C         69.48000000  *  153.28200000  * -40.91900000  *
    82       O         70.48400000  *  153.60900000  * -41.55800000  *
    83       N         69.52300000  *  152.53000000  * -39.82800000  *
    84       H         68.64800000  *  152.30000000  * -39.37700000  *
    85       C         70.73400000  *  151.93200000  * -39.28900000  *
    86       H         71.56800000  *  152.60600000  * -39.48100000  *
    87       C         70.56800000  *  151.78400000  * -37.76600000  *
    88       H         69.70700000  *  151.14900000  * -37.55100000  *
    89       H         71.46300000  *  151.31900000  * -37.37100000  *
    90       C         70.40200000  *  153.14500000  * -37.06600000  *
    91       H         71.24600000  *  153.78100000  * -37.34200000  *
    92       H         69.49000000  *  153.63100000  * -37.42000000  *
    93       C         70.32800000  *  153.01300000  * -35.53600000  *
    94       O         69.47600000  *  152.25100000  * -35.02300000  *
    95       O         71.09400000  *  153.71000000  * -34.83100000  *
    96       C         71.00100000  *  150.60700000  * -40.03000000  *
    97       O         70.24800000  *  149.64200000  * -39.88600000  *
    98       N         71.98400000  *  150.61200000  * -40.93800000  *
    99       H         72.62100000  *  151.39700000  * -40.96700000  *
   100       C         72.04200000  *  149.68100000  * -42.07200000  *
   101       H         71.02600000  *  149.45300000  * -42.38800000  *
   102       H         72.53300000  *  150.19500000  * -42.89900000  *
   103       C         72.76800000  *  148.34900000  * -41.85300000  *
   104       O         73.14200000  *  147.98100000  * -40.74100000  *
   105       N         72.98300000  *  147.61500000  * -42.95200000  *
   106       H         72.63100000  *  147.97100000  * -43.83900000  *
   107       C         73.72600000  *  146.33300000  * -42.98200000  *
   108       H         73.37600000  *  145.70500000  * -42.16200000  *
   109       C         73.50400000  *  145.56300000  * -44.29500000  *
   110       H         74.30400000  *  144.83500000  * -44.43200000  *
   111       C         72.18600000  *  144.80100000  * -44.25300000  *
   112       H         71.38400000  *  145.45800000  * -43.92100000  *
   113       H         71.95900000  *  144.39400000  * -45.23800000  *
   114       H         72.28700000  *  143.97300000  * -43.55200000  *
   115       O         73.51400000  *  146.45300000  * -45.39100000  *
   116       H         73.25200000  *  145.94100000  * -46.19200000  *
   117       C         75.22800000  *  146.49400000  * -42.79500000  *
   118       O         75.81900000  *  145.71800000  * -42.05500000  *
   119       N         75.82900000  *  147.48500000  * -43.45900000  *
   120       H         75.24100000  *  148.01000000  * -44.08400000  *
   121       C         77.28700000  *  147.70200000  * -43.53400000  *
   122       H         77.77900000  *  147.12000000  * -42.75400000  *
   123       C         77.81000000  *  147.20300000  * -44.89600000  *
   124       H         77.46100000  *  147.88500000  * -45.67100000  *
   125       H         78.90000000  *  147.24700000  * -44.89200000  *
   126       C         77.41300000  *  145.78800000  * -45.27100000  *
   127       C         77.70400000  *  144.72500000  * -44.39600000  *
   128       H         78.20500000  *  144.91500000  * -43.45500000  *
   129       C         77.33400000  *  143.41400000  * -44.73700000  *
   130       H         77.55100000  *  142.60400000  * -44.06100000  *
   131       C         76.69200000  *  143.15400000  * -45.96500000  *
   132       O         76.41300000  *  141.87300000  * -46.31500000  *
   133       H         77.03300000  *  141.28200000  * -45.86000000  *
   134       C         76.38800000  *  144.21900000  * -46.83600000  *
   135       H         75.88100000  *  144.02700000  * -47.76700000  *
   136       C         76.75700000  *  145.53300000  * -46.49200000  *
   137       H         76.54400000  *  146.34200000  * -47.17500000  *
   138       C         77.69900000  *  149.16800000  * -43.30300000  *
   139       O         78.78900000  *  149.57700000  * -43.69800000  *
   140       N         76.82500000  *  149.97400000  * -42.69500000  *
   141       H         75.96000000  *  149.58300000  * -42.35000000  *
   142       C         77.03800000  *  151.40300000  * -42.45500000  *
   143       H         77.62700000  *  151.53900000  * -41.55000000  *
   144       H         77.59900000  *  151.81900000  * -43.28000000  *
   145       C         75.72200000  *  152.16700000  * -42.30000000  *
   146       O         74.67900000  *  151.55700000  * -42.05000000  *
   147       N         75.75500000  *  153.49500000  * -42.44900000  *
   148       H         76.58800000  *  153.89400000  * -42.85900000  *
   149       C         74.59200000  *  154.32600000  * -42.21200000  *
   150       H         73.82600000  *  153.78000000  * -41.65800000  *
   151       C         74.95900000  *  155.54800000  * -41.37000000  *
   152       H         75.70700000  *  156.13900000  * -41.89300000  *
   153       C         73.73100000  *  156.40900000  * -41.13300000  *
   154       H         72.94300000  *  155.80300000  * -40.68200000  *
   155       H         73.98600000  *  157.21200000  * -40.45000000  *
   156       H         73.36800000  *  156.84900000  * -42.06500000  *
   157       C         75.54500000  *  155.09600000  * -40.05300000  *
   158       H         76.46000000  *  154.52800000  * -40.19800000  *
   159       H         75.77700000  *  155.95300000  * -39.42300000  *
   160       H         74.80500000  *  154.48400000  * -39.53200000  *
   161       C         74.01900000  *  154.79200000  * -43.53700000  *
   162       O         74.76100000  *  155.18400000  * -44.43700000  *
   163       N         72.69900000  *  154.64400000  * -43.67700000  *
   164       H         72.17100000  *  154.29700000  * -42.88300000  *
   165       C         71.91500000  *  155.09400000  * -44.83400000  *
   166       H         72.57100000  *  155.15000000  * -45.70000000  *
   167       C         70.75900000  *  154.12100000  * -45.16500000  *
   168       H         69.91700000  *  154.32300000  * -44.50400000  *
   169       C         70.30200000  *  154.33200000  * -46.61300000  *
   170       H         71.10100000  *  154.06500000  * -47.30600000  *
   171       H         69.43100000  *  153.70900000  * -46.82100000  *
   172       H         70.03100000  *  155.37400000  * -46.77600000  *
   173       C         71.11400000  *  152.64000000  * -44.98900000  *
   174       H         72.01400000  *  152.40100000  * -45.54600000  *
   175       H         71.27300000  *  152.41300000  * -43.93300000  *
   176       H         70.28500000  *  152.02600000  * -45.34300000  *
   177       C         71.35300000  *  156.48400000  * -44.54000000  *
   178       O         70.62400000  *  156.63700000  * -43.55600000  *
   179       N         71.62500000  *  157.49000000  * -45.37400000  *
   180       H         72.23900000  *  157.32200000  * -46.16900000  *
   181       C         71.01800000  *  158.79600000  * -45.21900000  *
   182       H         70.37900000  *  158.84300000  * -44.33800000  *
   183       C         72.10000000  *  159.86100000  * -45.06900000  *
   184       H         72.79900000  *  159.78100000  * -45.90500000  *
   185       H         71.63400000  *  160.84400000  * -45.14300000  *
   186       C         72.87100000  *  159.84300000  * -43.76800000  *
   187       C         72.34700000  *  160.43100000  * -42.61900000  *
   188       H         71.37700000  *  160.90600000  * -42.66800000  *
   189       C         73.06400000  *  160.45200000  * -41.42500000  *
   190       H         72.63300000  *  160.94600000  * -40.56800000  *
   191       C         74.33000000  *  159.87400000  * -41.37100000  *
   192       O         75.04700000  *  159.90100000  * -40.18700000  *
   193       H         74.69700000  *  160.54100000  * -39.56800000  *
   194       C         74.87500000  *  159.27800000  * -42.50300000  *
   195       H         75.78500000  *  158.71900000  * -42.41900000  *
   196       C         74.14000000  *  159.26700000  * -43.69600000  *
   197       H         74.51800000  *  158.73300000  * -44.56500000  *
   198       C         70.16700000  *  159.17400000  * -46.42900000  *
   199       O         70.41800000  *  158.72400000  * -47.55600000  *
   200       N         69.03000000  *  159.83400000  * -46.21300000  *
   201       H         68.84300000  *  160.14300000  * -45.26600000  *
   202       C         68.29500000  *  160.51100000  * -47.28300000  *
   203       H         68.28800000  *  159.91000000  * -48.19400000  *
   204       C         66.85000000  *  160.83200000  * -46.85000000  *
   205       H         66.33200000  *  159.90800000  * -46.60500000  *
   206       H         66.86600000  *  161.45900000  * -45.95700000  *
   207       C         66.04500000  *  161.53600000  * -47.95500000  *
   208       H         66.52800000  *  162.47700000  * -48.22300000  *
   209       H         66.01100000  *  160.89500000  * -48.83600000  *
   210       C         64.61500000  *  161.82700000  * -47.47300000  *
   211       H         64.14600000  *  160.89600000  * -47.15000000  *
   212       H         64.65900000  *  162.50800000  * -46.62200000  *
   213       C         63.78000000  *  162.45400000  * -48.59800000  *
   214       H         64.31600000  *  163.32500000  * -48.99000000  *
   215       H         63.68800000  *  161.72200000  * -49.40800000  *
   216       N         62.43200000  *  162.86500000  * -48.12300000  *
   217       H         62.49400000  *  163.56300000  * -47.39600000  *
   218       H         61.88600000  *  163.26700000  * -48.87400000  *
   219       H         61.91200000  *  162.08200000  * -47.75100000  *
   220       C         69.10100000  *  161.76600000  * -47.51000000  *
   221       O         69.32900000  *  162.50100000  * -46.55200000  *
   222       N         69.55500000  *  162.00600000  * -48.72500000  *
   223       H         69.34400000  *  161.34200000  * -49.46700000  *
   224       C         70.34900000  *  163.18200000  * -49.01700000  *
   225       H         70.22500000  *  163.93500000  * -48.24000000  *
   226       C         71.81400000  *  162.79200000  * -49.07000000  *
   227       H         71.97800000  *  162.06700000  * -49.86400000  *
   228       H         72.42900000  *  163.67700000  * -49.23900000  *
   229       H         72.10500000  *  162.33200000  * -48.12600000  *
   230       C         69.94400000  *  163.83800000  * -50.32200000  *
   231       O         69.22100000  *  163.25100000  * -51.12800000  *
   232       N         70.40700000  *  165.06400000  * -50.52400000  *
   233       H         70.93200000  *  165.53000000  * -49.79600000  *
   234       C         70.10800000  *  165.77900000  * -51.74600000  *
   235       H         69.54100000  *  165.15900000  * -52.44400000  *
   236       H         69.52200000  *  166.69100000  * -51.53000000  *
   237       H         71.05900000  *  166.04700000  * -52.23900000  *
   238       H         68.08600000  *  164.80700000  * -56.55000000  *
   239       C         68.21200000  *  164.39600000  * -55.53600000  *
   240       O         69.28600000  *  164.50800000  * -54.94200000  *
   241       N         67.13500000  *  163.82300000  * -55.01100000  *
   242       H         66.34000000  *  163.66800000  * -55.61500000  *
   243       C         67.13600000  *  163.21200000  * -53.68800000  *
   244       H         67.86300000  *  163.70700000  * -53.05000000  *
   245       C         65.75500000  *  163.32300000  * -53.02900000  *
   246       H         64.97700000  *  163.06900000  * -53.75000000  *
   247       C         65.64800000  *  162.36600000  * -51.85200000  *
   248       H         66.47200000  *  162.51800000  * -51.15200000  *
   249       H         64.69700000  *  162.53800000  * -51.34700000  *
   250       H         65.65200000  *  161.33900000  * -52.20000000  *
   251       C         65.54000000  *  164.75000000  * -52.56600000  *
   252       H         65.62600000  *  165.42400000  * -53.41600000  *
   253       H         64.53500000  *  164.85100000  * -52.15900000  *
   254       H         66.28400000  *  165.00300000  * -51.81000000  *
   255       C         67.52600000  *  161.76000000  * -53.84700000  *
   256       O         66.97900000  *  161.02800000  * -54.68200000  *
   257       N         68.49600000  *  161.34900000  * -53.04800000  *
   258       H         68.91100000  *  161.99700000  * -52.39100000  *
   259       C         69.01100000  *  159.99200000  * -53.10200000  *
   260       H         68.34600000  *  159.34100000  * -53.67900000  *
   261       C         70.37400000  *  159.97400000  * -53.81600000  *
   262       H         70.77500000  *  158.96500000  * -53.87500000  *
   263       C         70.21400000  *  160.50700000  * -55.21300000  *
   264       H         69.95700000  *  161.56600000  * -55.19000000  *
   265       H         71.15100000  *  160.39100000  * -55.75600000  *
   266       H         69.44200000  *  159.95000000  * -55.73600000  *
   267       C         71.37900000  *  160.85000000  * -53.05700000  *
   268       H         71.56500000  *  160.44500000  * -52.06400000  *
   269       H         72.31500000  *  160.84900000  * -53.61300000  *
   270       H         71.03600000  *  161.88400000  * -52.98400000  *
   271       C         69.19200000  *  159.37200000  * -51.72900000  *
   272       O         69.02000000  *  160.03600000  * -50.68600000  *
   273       N         69.37500000  *  158.05700000  * -51.70200000  *
   274       H         69.44600000  *  157.56300000  * -52.58700000  *
   275       C         69.75900000  *  157.32700000  * -50.50900000  *
   276       H         69.48500000  *  157.89600000  * -49.62300000  *
   277       C         69.00100000  *  156.00700000  * -50.45300000  *
   278       H         69.20900000  *  155.42700000  * -51.34900000  *
   279       H         69.30700000  *  155.43900000  * -49.57400000  *
   280       H         67.93400000  *  156.21300000  * -50.39100000  *
   281       C         71.27600000  *  157.14900000  * -50.54200000  *
   282       O         71.80700000  *  156.47700000  * -51.43300000  *
   283       N         71.97000000  *  157.79100000  * -49.60300000  *
   284       H         71.44500000  *  158.28300000  * -48.88900000  *
   285       C         73.41300000  *  157.73400000  * -49.53500000  *
   286       H         73.80300000  *  157.43200000  * -50.50200000  *
   287       C         73.96100000  *  159.11400000  * -49.18200000  *
   288       H         73.49200000  *  159.84000000  * -49.85100000  *
   289       H         73.62800000  *  159.35800000  * -48.16900000  *
   290       C         75.47300000  *  159.31600000  * -49.26600000  *
   291       H         75.96900000  *  158.63700000  * -48.57100000  *
   292       C         75.94900000  *  159.02000000  * -50.68400000  *
   293       H         75.44100000  *  159.71800000  * -51.34800000  *
   294       H         77.02400000  *  159.18800000  * -50.76300000  *
   295       H         75.74700000  *  157.98700000  * -50.96800000  *
   296       C         75.80400000  *  160.74000000  * -48.87900000  *
   297       H         75.43700000  *  160.94600000  * -47.87600000  *
   298       H         76.88200000  *  160.87900000  * -48.92200000  *
   299       H         75.32000000  *  161.42900000  * -49.57600000  *
   300       C         73.82100000  *  156.71600000  * -48.48500000  *
   301       O         73.39600000  *  156.78100000  * -47.33400000  *
   302       N         74.62800000  *  155.73100000  * -48.88200000  *
   303       H         74.86800000  *  155.69600000  * -49.87100000  *
   304       C         75.11400000  *  154.63000000  * -48.03200000  *
   305       H         74.60500000  *  154.65500000  * -47.06800000  *
   306       C         74.79700000  *  153.29100000  * -48.74400000  *
   307       H         74.17000000  *  153.49000000  * -49.61600000  *
   308       H         75.71500000  *  152.83500000  * -49.11300000  *
   309       C         74.05100000  *  152.24400000  * -47.90500000  *
   310       H         73.19100000  *  152.71600000  * -47.43200000  *
   311       H         73.67900000  *  151.48900000  * -48.59700000  *
   312       C         74.93500000  *  151.56300000  * -46.84200000  *
   313       H         75.89100000  *  151.28700000  * -47.28700000  *
   314       H         75.13400000  *  152.28400000  * -46.04400000  *
   315       C         74.28000000  *  150.30700000  * -46.23200000  *
   316       H         74.82600000  *  150.04600000  * -45.32000000  *
   317       H         73.26500000  *  150.56700000  * -45.91000000  *
   318       N         74.25800000  *  149.13900000  * -47.17400000  *
   319       H         75.17100000  *  148.70800000  * -47.27500000  *
   320       H         73.58700000  *  148.41000000  * -46.88500000  *
   321       H         73.96200000  *  149.40300000  * -48.10800000  *
   322       C         76.61300000  *  154.82700000  * -47.78800000  *
   323       O         77.39800000  *  154.63400000  * -48.70800000  *
   324       N         77.01700000  *  155.22600000  * -46.58100000  *
   325       H         76.29800000  *  155.26800000  * -45.86500000  *
   326       C         78.42200000  *  155.28900000  * -46.15900000  *
   327       H         79.06600000  *  155.59300000  * -46.98900000  *
   328       C         78.56700000  *  156.26000000  * -44.97900000  *
   329       H         78.02700000  *  155.87500000  * -44.10900000  *
   330       H         79.62500000  *  156.33900000  * -44.73000000  *
   331       C         78.01500000  *  157.64300000  * -45.34000000  *
   332       H         78.45100000  *  157.95800000  * -46.27300000  *
   333       H         76.93600000  *  157.57500000  * -45.50000000  *
   334       C         78.25100000  *  158.72500000  * -44.27900000  *
   335       H         77.97800000  *  159.68000000  * -44.73200000  *
   336       H         77.56000000  *  158.53300000  * -43.46900000  *
   337       C         79.67700000  *  158.85000000  * -43.70900000  *
   338       H         80.38400000  *  158.36300000  * -44.39700000  *
   339       H         79.95000000  *  159.91100000  * -43.68600000  *
   340       N         79.78800000  *  158.26900000  * -42.33500000  *
   341       H         79.63700000  *  157.26100000  * -42.37000000  *
   342       H         80.69600000  *  158.42600000  * -41.93200000  *
   343       H         79.10400000  *  158.64600000  * -41.70100000  *
   344       C         78.82300000  *  153.89100000  * -45.72900000  *
   345       O         78.09100000  *  153.31500000  * -44.93700000  *
   346       N         79.90700000  *  153.32000000  * -46.24700000  *
   347       H         80.40500000  *  153.76400000  * -47.01000000  *
   348       C         80.34300000  *  152.02200000  * -45.76800000  *
   349       H         79.49500000  *  151.49800000  * -45.35900000  *
   350       C         80.94400000  *  151.18600000  * -46.89500000  *
   351       H         81.78600000  *  151.78200000  * -47.16900000  *
   352       C         81.42400000  *  149.85200000  * -46.34500000  *
   353       H         80.65600000  *  149.35200000  * -45.75200000  *
   354       H         81.67900000  *  149.19900000  * -47.17900000  *
   355       H         82.34500000  *  149.95700000  * -45.76100000  *
   356       C         79.89700000  *  150.97600000  * -47.99700000  *
   357       H         79.60200000  *  151.87000000  * -48.50000000  *
   358       H         80.28300000  *  150.30500000  * -48.75000000  *
   359       C         78.59100000  *  150.36100000  * -47.52600000  *
   360       H         78.17700000  *  150.90100000  * -46.69000000  *
   361       H         77.89400000  *  150.33700000  * -48.36300000  *
   362       H         78.77100000  *  149.33300000  * -47.20900000  *
   363       C         81.33300000  *  152.07100000  * -44.61400000  *
   364       O         82.16700000  *  152.98000000  * -44.51900000  *
   365       N         81.21100000  *  151.07100000  * -43.74300000  *
   366       H         80.50300000  *  150.36100000  * -43.92800000  *
   367       C         82.04400000  *  150.90200000  * -42.55200000  *
   368       H         81.47500000  *  151.18100000  * -41.66300000  *
   369       H         82.35800000  *  149.86100000  * -42.45900000  *
   370       H         82.94700000  *  151.51400000  * -42.62000000  *
   371       H         81.25700000  *  144.04600000  * -57.89900000  *
   372       C         80.50000000  *  144.84100000  * -57.88800000  *
   373       O         79.71500000  *  144.99000000  * -58.82400000  *
   374       N         80.49900000  *  145.60300000  * -56.79700000  *
   375       H         81.28000000  *  145.52500000  * -56.16600000  *
   376       C         79.57000000  *  146.70600000  * -56.61200000  *
   377       H         78.57500000  *  146.34400000  * -56.42300000  *
   378       C         80.00500000  *  147.61000000  * -55.44200000  *
   379       H         80.89800000  *  148.18000000  * -55.68500000  *
   380       C         78.90600000  *  148.60800000  * -55.12500000  *
   381       H         77.92000000  *  148.14100000  * -55.17600000  *
   382       H         79.04500000  *  148.98700000  * -54.11600000  *
   383       H         78.93800000  *  149.43600000  * -55.83300000  *
   384       C         80.32100000  *  146.76200000  * -54.20900000  *
   385       H         81.19200000  *  146.13400000  * -54.40600000  *
   386       H         80.59400000  *  147.42200000  * -53.38900000  *
   387       C         79.18400000  *  145.87900000  * -53.76500000  *
   388       H         78.77800000  *  145.31100000  * -54.59400000  *
   389       H         79.50900000  *  145.12200000  * -53.06500000  *
   390       H         78.38800000  *  146.48300000  * -53.33500000  *
   391       C         79.54300000  *  147.54500000  * -57.87900000  *
   392       O         78.48200000  *  147.77900000  * -58.45100000  *
   393       N         80.72300000  *  147.98900000  * -58.30900000  *
   394       H         81.55800000  *  147.70100000  * -57.81200000  *
   395       C         80.85900000  *  148.80400000  * -59.51100000  *
   396       H         80.33900000  *  149.74600000  * -59.38600000  *
   397       H         81.92800000  *  148.98500000  * -59.72900000  *
   398       H         80.37800000  *  148.32200000  * -60.38100000  *
   399       H         78.96400000  *  146.08700000  * -61.65600000  *
   400       C         77.87300000  *  146.08700000  * -61.51600000  *
   401       O         77.11500000  *  145.89500000  * -62.46400000  *
   402       N         77.44600000  *  146.31800000  * -60.28000000  *
   403       H         78.13400000  *  146.42500000  * -59.54900000  *
   404       C         76.02800000  *  146.35200000  * -59.94500000  *
   405       H         75.53300000  *  145.47600000  * -60.35900000  *
   406       C         75.84100000  *  146.37400000  * -58.43100000  *
   407       H         76.20500000  *  147.30400000  * -58.01800000  *
   408       H         74.76300000  *  146.35700000  * -58.24200000  *
   409       C         76.47200000  *  145.22200000  * -57.65900000  *
   410       H         77.55000000  *  145.23900000  * -57.74900000  *
   411       C         76.08000000  *  145.34100000  * -56.19200000  *
   412       H         74.99900000  *  145.23000000  * -56.07700000  *
   413       H         76.57300000  *  144.55300000  * -55.62900000  *
   414       H         76.38500000  *  146.30900000  * -55.80100000  *
   415       C         75.99600000  *  143.89000000  * -58.23600000  *
   416       H         76.41500000  *  143.73000000  * -59.22900000  *
   417       H         76.32800000  *  143.07800000  * -57.59100000  *
   418       H         74.90500000  *  143.87400000  * -58.30500000  *
   419       C         75.32200000  *  147.55900000  * -60.54800000  *
   420       O         74.09500000  *  147.56800000  * -60.66200000  *
   421       N         76.08400000  *  148.63100000  * -60.82900000  *
   422       H         77.08200000  *  148.53500000  * -60.67700000  *
   423       C         75.60100000  *  149.83300000  * -61.53400000  *
   424       H         74.83700000  *  150.33500000  * -60.94100000  *
   425       H         76.43800000  *  150.53300000  * -61.75900000  *
   426       H         75.13800000  *  149.54900000  * -62.49200000  *
   427       H         62.79000000  *  145.77200000  * -59.27600000  *
   428       C         63.71000000  *  145.72000000  * -58.67500000  *
   429       O         63.77900000  *  145.02200000  * -57.66400000  *
   430       N         64.72400000  *  146.45200000  * -59.11400000  *
   431       H         64.63800000  *  147.05100000  * -59.92700000  *
   432       C         65.97100000  *  146.53500000  * -58.38100000  *
   433       H         65.88400000  *  146.09200000  * -57.38600000  *
   434       C         67.11600000  *  145.87700000  * -59.11400000  *
   435       H         67.33600000  *  146.42600000  * -60.03000000  *
   436       C         68.35100000  *  145.87800000  * -58.21400000  *
   437       H         68.14700000  *  145.31400000  * -57.31800000  *
   438       H         69.21000000  *  145.44500000  * -58.72400000  *
   439       H         68.64100000  *  146.89000000  * -57.94500000  *
   440       C         66.72800000  *  144.44400000  * -59.47800000  *
   441       H         66.54900000  *  143.87300000  * -58.56400000  *
   442       H         65.81500000  *  144.42400000  * -60.06800000  *
   443       C         67.77400000  *  143.72700000  * -60.29600000  *
   444       H         68.68300000  *  143.57700000  * -59.72200000  *
   445       H         67.37700000  *  142.75300000  * -60.59800000  *
   446       H         68.02300000  *  144.31300000  * -61.18000000  *
   447       C         66.29500000  *  148.01000000  * -58.22000000  *
   448       O         66.21200000  *  148.78000000  * -59.18400000  *
   449       N         66.54700000  *  148.43900000  * -56.98200000  *
   450       H         66.62000000  *  147.75800000  * -56.23100000  *
   451       C         66.89000000  *  149.83400000  * -56.68900000  *
   452       H         66.07600000  *  150.48100000  * -57.01700000  *
   453       C         67.10100000  *  150.04200000  * -55.18500000  *
   454       H         67.88400000  *  149.36900000  * -54.83400000  *
   455       C         67.50800000  *  151.47900000  * -54.85600000  *
   456       H         66.70700000  *  152.17400000  * -55.11000000  *
   457       H         67.72200000  *  151.53500000  * -53.79300000  *
   458       H         68.41000000  *  151.76000000  * -55.39600000  *
   459       C         65.81500000  *  149.74800000  * -54.41000000  *
   460       H         65.52700000  *  148.70500000  * -54.51900000  *
   461       H         65.99700000  *  149.93800000  * -53.35800000  *
   462       H         65.00700000  *  150.38500000  * -54.76400000  *
   463       C         68.14900000  *  150.20800000  * -57.46400000  *
   464       O         69.17500000  *  149.53100000  * -57.35100000  *
   465       N         68.08000000  *  151.28300000  * -58.25100000  *
   466       H         67.22500000  *  151.80400000  * -58.24500000  *
   467       C         69.18900000  *  151.69800000  * -59.08000000  *
   468       H         69.52500000  *  150.81900000  * -59.63900000  *
   469       C         68.73700000  *  152.76800000  * -60.08300000  *
   470       H         67.83400000  *  152.41100000  * -60.57900000  *
   471       H         68.47700000  *  153.68100000  * -59.53700000  *
   472       C         69.79100000  *  153.06900000  * -61.13100000  *
   473       H         70.72100000  *  153.35000000  * -60.64200000  *
   474       H         69.97400000  *  152.16800000  * -61.71600000  *
   475       C         69.35100000  *  154.17900000  * -62.08100000  *
   476       H         68.50200000  *  153.81400000  * -62.66100000  *
   477       H         69.02300000  *  155.05600000  * -61.52200000  *
   478       C         70.49800000  *  154.55900000  * -63.02400000  *
   479       H         71.33900000  *  154.89000000  * -62.40800000  *
   480       H         70.81900000  *  153.66100000  * -63.56600000  *
   481       N         70.11800000  *  155.62600000  * -63.99700000  *
   482       H         69.74700000  *  156.41600000  * -63.48300000  *
   483       H         70.92600000  *  155.93300000  * -64.52500000  *
   484       H         69.41500000  *  155.27800000  * -64.63600000  *
   485       C         70.36000000  *  152.21400000  * -58.25300000  *
   486       O         70.19400000  *  153.07400000  * -57.38700000  *
   487       N         71.53700000  *  151.64500000  * -58.50700000  *
   488       H         71.59600000  *  150.90400000  * -59.18600000  *
   489       C         72.75000000  *  152.07400000  * -57.83600000  *
   490       H         72.53800000  *  152.52600000  * -56.87100000  *
   491       C         73.72700000  *  150.91100000  * -57.67000000  *
   492       H         73.31500000  *  150.22100000  * -56.93700000  *
   493       H         73.77900000  *  150.36900000  * -58.62000000  *
   494       C         75.16700000  *  151.27300000  * -57.28800000  *
   495       H         75.65500000  *  151.80300000  * -58.10000000  *
   496       C         75.18300000  *  152.16500000  * -56.05900000  *
   497       H         74.60800000  *  151.72100000  * -55.25200000  *
   498       H         76.21000000  *  152.29600000  * -55.73500000  *
   499       H         74.78900000  *  153.14000000  * -56.31200000  *
   500       C         75.93300000  *  149.99400000  * -57.01300000  *
   501       H         75.98300000  *  149.42100000  * -57.93300000  *
   502       H         76.94600000  *  150.24200000  * -56.71200000  *
   503       H         75.43500000  *  149.41000000  * -56.23200000  *
   504       C         73.31900000  *  153.11300000  * -58.79500000  *
   505       O         73.76900000  *  152.77900000  * -59.89700000  *
   506       N         73.26700000  *  154.36900000  * -58.37800000  *
   507       H         72.92600000  *  154.57000000  * -57.44900000  *
   508       C         73.73400000  *  155.46600000  * -59.19700000  *
   509       H         73.47500000  *  155.26500000  * -60.23600000  *
   510       C         73.02500000  *  156.74200000  * -58.76000000  *
   511       H         73.45000000  *  157.06300000  * -57.80900000  *
   512       H         73.23600000  *  157.53300000  * -59.48700000  *
   513       C         71.51300000  *  156.60300000  * -58.58700000  *
   514       H         71.27400000  *  155.80900000  * -57.88500000  *
   515       C         70.97400000  *  157.88000000  * -58.01900000  *
   516       H         71.37000000  *  158.74600000  * -58.56000000  *
   517       H         69.88800000  *  157.89100000  * -58.09300000  *
   518       H         71.22100000  *  157.96000000  * -56.96600000  *
   519       C         70.85100000  *  156.29000000  * -59.92300000  *
   520       H         71.28300000  *  155.39700000  * -60.34200000  *
   521       H         69.78900000  *  156.14400000  * -59.75100000  *
   522       H         71.00300000  *  157.12700000  * -60.60700000  *
   523       C         75.24500000  *  155.67800000  * -59.15800000  *
   524       O         75.83900000  *  156.04700000  * -60.17600000  *
   525       N         75.86200000  *  155.44600000  * -57.99600000  *
   526       H         75.29500000  *  155.17900000  * -57.20400000  *
   527       C         77.30800000  *  155.64700000  * -57.82900000  *
   528       H         77.80800000  *  155.40400000  * -58.76600000  *
   529       C         77.60000000  *  157.11700000  * -57.51900000  *
   530       H         76.91700000  *  157.54400000  * -56.80300000  *
   531       H         78.58200000  *  157.17000000  * -57.04800000  *
   532       C         77.65600000  *  157.97500000  * -58.75600000  *
   533       O         78.67800000  *  157.91700000  * -59.48300000  *
   534       O         76.67400000  *  158.70400000  * -59.00000000  *
   535       C         77.97900000  *  154.81700000  * -56.73400000  *
   536       O         77.37100000  *  154.52100000  * -55.70400000  *
   537       N         79.24700000  *  154.47700000  * -56.96600000  *
   538       H         79.69800000  *  154.82400000  * -57.79800000  *
   539       C         80.06100000  *  153.73800000  * -56.00300000  *
   540       H         79.55400000  *  153.69900000  * -55.05200000  *
   541       C         80.36600000  *  152.29800000  * -56.50400000  *
   542       H         79.42700000  *  151.75200000  * -56.56200000  *
   543       C         80.98100000  *  152.34300000  * -57.88400000  *
   544       H         82.06600000  *  152.43300000  * -57.82100000  *
   545       H         80.74600000  *  151.41400000  * -58.37900000  *
   546       H         80.59600000  *  153.14500000  * -58.51000000  *
   547       C         81.29900000  *  151.58800000  * -55.53900000  *
   548       H         80.81100000  *  151.54900000  * -54.57200000  *
   549       H         81.47300000  *  150.57200000  * -55.87800000  *
   550       H         82.25900000  *  152.09200000  * -55.44900000  *
   551       C         81.36500000  *  154.53600000  * -55.81000000  *
   552       O         82.27000000  *  154.48900000  * -56.64700000  *
   553       N         81.45200000  *  155.28200000  * -54.71000000  *
   554       H         80.67600000  *  155.30400000  * -54.06400000  *
   555       C         82.62100000  *  156.11100000  * -54.44300000  *
   556       H         83.20500000  *  156.21800000  * -55.35800000  *
   557       H         82.32200000  *  157.12800000  * -54.14500000  *
   558       H         83.29700000  *  155.73900000  * -53.65600000  *
   559       H         84.58000000  *  155.17100000  * -47.07300000  *
   560       C         84.22500000  *  154.98400000  * -48.09100000  *
   561       O         84.63900000  *  155.65900000  * -49.04200000  *
   562       N         83.35800000  *  153.99100000  * -48.22200000  *
   563       H         83.13600000  *  153.42800000  * -47.41700000  *
   564       C         82.77600000  *  153.65100000  * -49.50600000  *
   565       H         83.37000000  *  154.04700000  * -50.31700000  *
   566       C         82.71900000  *  152.14000000  * -49.66000000  *
   567       H         83.74000000  *  151.87500000  * -49.95700000  *
   568       H         82.64400000  *  151.54600000  * -48.78400000  *
   569       C         81.82600000  *  151.61900000  * -50.77900000  *
   570       H         80.79100000  *  151.88400000  * -50.58700000  *
   571       C         82.25800000  *  152.23100000  * -52.09200000  *
   572       H         83.31100000  *  152.49100000  * -52.08900000  *
   573       H         82.09300000  *  151.51300000  * -52.88400000  *
   574       H         81.65400000  *  153.10900000  * -52.31200000  *
   575       C         81.89900000  *  150.09400000  * -50.82200000  *
   576       H         81.91300000  *  149.66400000  * -49.82700000  *
   577       H         81.05200000  *  149.70600000  * -51.39100000  *
   578       H         82.82500000  *  149.80300000  * -51.32100000  *
   579       C         81.36700000  *  154.23200000  * -49.54800000  *
   580       O         80.51800000  *  153.85700000  * -48.74500000  *
   581       N         81.13100000  *  155.16100000  * -50.46700000  *
   582       H         81.84500000  *  155.34800000  * -51.16200000  *
   583       C         79.82200000  *  155.78100000  * -50.60800000  *
   584       H         79.27400000  *  155.67000000  * -49.68700000  *
   585       C         79.96700000  *  157.27800000  * -50.86800000  *
   586       H         80.42300000  *  157.50400000  * -51.79700000  *
   587       H         78.95400000  *  157.66400000  * -50.98900000  *
   588       C         80.57600000  *  158.04300000  * -49.72300000  *
   589       C         79.79300000  *  158.48000000  * -48.65600000  *
   590       H         78.73500000  *  158.25400000  * -48.66900000  *
   591       C         80.35600000  *  159.18600000  * -47.59400000  *
   592       H         79.75300000  *  159.56200000  * -46.79700000  *
   593       C         81.71600000  *  159.45200000  * -47.58700000  *
   594       O         82.27600000  *  160.12500000  * -46.52100000  *
   595       H         83.20600000  *  160.30800000  * -46.74500000  *
   596       C         82.51400000  *  159.02600000  * -48.63700000  *
   597       H         83.58200000  *  159.23300000  * -48.65000000  *
   598       C         81.94100000  *  158.32800000  * -49.69800000  *
   599       H         82.57400000  *  157.98100000  * -50.50200000  *
   600       C         79.04800000  *  155.15800000  * -51.76500000  *
   601       O         79.54400000  *  155.08000000  * -52.88800000  *
   602       N         77.86100000  *  154.62500000  * -51.49400000  *
   603       H         77.53700000  *  154.64500000  * -50.53300000  *
   604       C         76.97800000  *  154.05200000  * -52.50900000  *
   605       H         77.50100000  *  153.99200000  * -53.45700000  *
   606       C         76.53800000  *  152.62600000  * -52.13700000  *
   607       H         75.85900000  *  152.68300000  * -51.29300000  *
   608       H         75.98000000  *  152.21800000  * -52.98000000  *
   609       C         77.67200000  *  151.65100000  * -51.77900000  *
   610       H         78.19100000  *  151.99900000  * -50.88700000  *
   611       C         77.09500000  *  150.26500000  * -51.49300000  *
   612       H         76.59900000  *  149.87300000  * -52.38200000  *
   613       H         77.89600000  *  149.58500000  * -51.20000000  *
   614       H         76.37500000  *  150.32700000  * -50.67800000  *
   615       C         78.67300000  *  151.51800000  * -52.92000000  *
   616       H         79.19400000  *  152.46200000  * -53.06200000  *
   617       H         79.40900000  *  150.75700000  * -52.67200000  *
   618       H         78.15600000  *  151.24700000  * -53.84200000  *
   619       C         75.78100000  *  154.98100000  * -52.67200000  *
   620       O         75.09000000  *  155.24700000  * -51.68400000  *
   621       N         75.54700000  *  155.50800000  * -53.87800000  *
   622       H         76.14500000  *  155.25500000  * -54.66000000  *
   623       C         74.40900000  *  156.37500000  * -54.09400000  *
   624       H         73.97600000  *  156.70200000  * -53.15000000  *
   625       C         74.83400000  *  157.63700000  * -54.81800000  *
   626       H         75.25500000  *  157.34500000  * -55.76600000  *
   627       C         73.61400000  *  158.52200000  * -55.10900000  *
   628       H         73.11700000  *  158.76900000  * -54.17500000  *
   629       H         73.94100000  *  159.43100000  * -55.61500000  *
   630       H         72.91600000  *  158.00900000  * -55.76200000  *
   631       C         75.84000000  *  158.38200000  * -53.94900000  *
   632       H         75.28100000  *  158.78400000  * -53.13000000  *
   633       H         76.65600000  *  157.75800000  * -53.60500000  *
   634       H         76.26100000  *  159.20400000  * -54.52500000  *
   635       C         73.31400000  *  155.64400000  * -54.85300000  *
   636       O         73.49500000  *  155.22100000  * -55.99400000  *
   637       N         72.17700000  *  155.44100000  * -54.18800000  *
   638       H         72.10300000  *  155.79800000  * -53.24000000  *
   639       C         70.99400000  *  154.78100000  * -54.74000000  *
   640       H         71.25200000  *  154.31400000  * -55.68500000  *
   641       C         70.52000000  *  153.68900000  * -53.77600000  *
   642       H         70.30800000  *  154.14300000  * -52.80900000  *
   643       H         69.58200000  *  153.28900000  * -54.15200000  *
   644       C         71.48300000  *  152.53400000  * -53.56700000  *
   645       C         71.45200000  *  151.42300000  * -54.43300000  *
   646       H         70.76800000  *  151.40400000  * -55.26900000  *
   647       C         72.30100000  *  150.32500000  * -54.20400000  *
   648       H         72.26900000  *  149.46800000  * -54.86500000  *
   649       C         73.18500000  *  150.33500000  * -53.11200000  *
   650       H         73.83600000  *  149.48800000  * -52.93500000  *
   651       C         73.21800000  *  151.44300000  * -52.24800000  *
   652       H         73.88800000  *  151.44200000  * -51.40200000  *
   653       C         72.37400000  *  152.54400000  * -52.47700000  *
   654       H         72.40200000  *  153.39400000  * -51.80700000  *
   655       C         69.86000000  *  155.78500000  * -54.99200000  *
   656       O         69.69300000  *  156.73900000  * -54.23200000  *
   657       N         69.05800000  *  155.57700000  * -56.04100000  *
   658       H         69.22900000  *  154.75800000  * -56.61600000  *
   659       C         67.80300000  *  156.32900000  * -56.24000000  *
   660       H         68.05600000  *  157.37500000  * -56.41800000  *
   661       C         67.05100000  *  155.80400000  * -57.47900000  *
   662       H         66.21200000  *  156.47400000  * -57.67000000  *
   663       H         67.72100000  *  155.83800000  * -58.33900000  *
   664       C         66.51300000  *  154.37000000  * -57.31500000  *
   665       H         67.34800000  *  153.70200000  * -57.09700000  *
   666       H         65.82100000  *  154.33700000  * -56.47600000  *
   667       C         65.74100000  *  153.84100000  * -58.52600000  *
   668       O         65.30500000  *  154.63100000  * -59.39400000  *
   669       O         65.52000000  *  152.61000000  * -58.56600000  *
   670       C         66.91600000  *  156.25900000  * -54.98000000  *
   671       O         66.77500000  *  155.18900000  * -54.39500000  *
   672       N         66.31900000  *  157.36100000  * -54.52100000  *
   673       H         66.40400000  *  158.23100000  * -55.02600000  *
   674       C         65.48200000  *  157.32800000  * -53.31300000  *
   675       H         65.98200000  *  156.70600000  * -52.56700000  *
   676       C         65.37300000  *  158.73200000  * -52.72000000  *
   677       H         66.37600000  *  159.09200000  * -52.49600000  *
   678       H         64.93400000  *  159.39600000  * -53.46600000  *
   679       C         64.55700000  *  158.81200000  * -51.44400000  *
   680       C         63.25700000  *  159.35300000  * -51.46600000  *
   681       H         62.83200000  *  159.70900000  * -52.39500000  *
   682       C         62.50600000  *  159.43300000  * -50.28100000  *
   683       H         61.50900000  *  159.85100000  * -50.30400000  *
   684       C         63.04900000  *  158.97000000  * -49.07100000  *
   685       H         62.46900000  *  159.03100000  * -48.15900000  *
   686       C         64.34700000  *  158.43100000  * -49.04500000  *
   687       H         64.76400000  *  158.08100000  * -48.11200000  *
   688       C         65.10100000  *  158.35200000  * -50.23000000  *
   689       H         66.10000000  *  157.94100000  * -50.20600000  *
   690       C         64.09400000  *  156.71500000  * -53.56900000  *
   691       O         63.42600000  *  157.06000000  * -54.54700000  *
   692       N         63.64000000  *  155.85700000  * -52.65000000  *
   693       H         64.26200000  *  155.60800000  * -51.88900000  *
   694       C         62.24800000  *  155.40300000  * -52.53100000  *
   695       H         61.62600000  *  155.93200000  * -53.25500000  *
   696       C         62.13300000  *  153.89100000  * -52.80000000  *
   697       H         62.86200000  *  153.35800000  * -52.19100000  *
   698       H         61.14000000  *  153.58100000  * -52.46900000  *
   699       C         62.29000000  *  153.50300000  * -54.28400000  *
   700       H         61.94600000  *  154.32200000  * -54.91600000  *
   701       C         63.74000000  *  153.16600000  * -54.63600000  *
   702       H         64.10200000  *  152.36700000  * -53.99300000  *
   703       H         63.81000000  *  152.86400000  * -55.68000000  *
   704       H         64.36700000  *  154.04400000  * -54.49400000  *
   705       C         61.44200000  *  152.27100000  * -54.61200000  *
   706       H         60.39700000  *  152.46600000  * -54.37000000  *
   707       H         61.51000000  *  152.04900000  * -55.67600000  *
   708       H         61.78600000  *  151.40900000  * -54.04100000  *
   709       C         61.71600000  *  155.75500000  * -51.13600000  *
   710       O         62.45800000  *  155.73700000  * -50.15700000  *
   711       N         60.44100000  *  156.12600000  * -51.03900000  *
   712       H         59.89200000  *  156.16500000  * -51.88800000  *
   713       C         59.88800000  *  156.80100000  * -49.85800000  *
   714       H         60.61000000  *  157.55000000  * -49.53300000  *
   715       C         58.61600000  *  157.55400000  * -50.27300000  *
   716       H         57.83900000  *  156.82600000  * -50.50900000  *
   717       H         58.28000000  *  158.15600000  * -49.43000000  *
   718       C         58.78700000  *  158.46500000  * -51.46800000  *
   719       N         58.86100000  *  158.05100000  * -52.80300000  *
   720       C         59.02000000  *  159.17200000  * -53.52900000  *
   721       H         59.11100000  *  159.20700000  * -54.60900000  *
   722       N         59.04800000  *  160.24800000  * -52.72500000  *
   723       H         59.15200000  *  161.20900000  * -53.03800000  *
   724       C         58.90200000  *  159.82300000  * -51.42300000  *
   725       H         58.87900000  *  160.44100000  * -50.53300000  *
   726       C         59.63200000  *  155.90800000  * -48.62800000  *
   727       O         59.51100000  *  156.43900000  * -47.52300000  *
   728       N         59.54400000  *  154.58000000  * -48.78500000  *
   729       H         59.67000000  *  154.19900000  * -49.71300000  *
   730       C         59.15700000  *  153.64300000  * -47.71600000  *
   731       H         59.61900000  *  153.96800000  * -46.78400000  *
   732       C         57.62400000  *  153.70900000  * -47.54000000  *
   733       H         57.35900000  *  154.72600000  * -47.24700000  *
   734       H         57.13400000  *  153.49400000  * -48.49200000  *
   735       C         57.08200000  *  152.74000000  * -46.47900000  *
   736       H         56.95400000  *  151.75500000  * -46.92600000  *
   737       H         57.80300000  *  152.66000000  * -45.66700000  *
   738       C         55.76400000  *  153.20700000  * -45.87500000  *
   739       O         55.72300000  *  153.96800000  * -44.92200000  *
   740       N         54.63300000  *  152.77200000  * -46.39100000  *
   741       H         53.78200000  *  153.10100000  * -45.96000000  *
   742       H         54.63600000  *  152.17500000  * -47.19700000  *
   743       C         59.64300000  *  152.20400000  * -47.98400000  *
   744       O         59.69800000  *  151.76800000  * -49.13600000  *
   745       N         59.97600000  *  151.45700000  * -46.92300000  *
   746       H         59.89900000  *  151.87400000  * -45.99600000  *
   747       C         60.28500000  *  150.01900000  * -47.01000000  *
   748       H         60.56600000  *  149.80600000  * -48.03700000  *
   749       C         61.52000000  *  149.66600000  * -46.16100000  *
   750       H         61.84600000  *  148.66400000  * -46.44400000  *
   751       H         62.32600000  *  150.35100000  * -46.42700000  *
   752       C         61.32300000  *  149.68400000  * -44.64000000  *
   753       O         60.32200000  *  149.12100000  * -44.15000000  *
   754       O         62.22200000  *  150.20900000  * -43.94400000  *
   755       C         59.07500000  *  149.11000000  * -46.70800000  *
   756       O         58.04200000  *  149.54800000  * -46.18300000  *
   757       N         59.19100000  *  147.81900000  * -47.04800000  *
   758       H         60.03800000  *  147.50900000  * -47.52500000  *
   759       C         58.10100000  *  146.88000000  * -46.84100000  *
   760       H         57.21800000  *  147.32500000  * -47.29300000  *
   761       C         58.41200000  *  145.57700000  * -47.59200000  *
   762       H         58.61300000  *  145.80400000  * -48.64400000  *
   763       H         59.28800000  *  145.12100000  * -47.15800000  *
   764       C         57.28700000  *  144.52700000  * -47.51900000  *
   765       H         57.05600000  *  144.28000000  * -46.48700000  *
   766       C         56.00700000  *  145.04400000  * -48.19600000  *
   767       H         56.23500000  *  145.37800000  * -49.20200000  *
   768       H         55.26800000  *  144.24500000  * -48.23100000  *
   769       H         55.59500000  *  145.87000000  * -47.62900000  *
   770       C         57.76800000  *  143.24900000  * -48.17500000  *
   771       H         58.61500000  *  142.85400000  * -47.62000000  *
   772       H         56.97300000  *  142.50400000  * -48.17100000  *
   773       H         58.06400000  *  143.44500000  * -49.20700000  *
   774       C         57.76400000  *  146.61300000  * -45.36900000  *
   775       O         56.60900000  *  146.37600000  * -45.03000000  *
   776       N         58.75700000  *  146.67700000  * -44.48800000  *
   777       H         59.64000000  *  147.08600000  * -44.79000000  *
   778       C         58.49100000  *  146.46700000  * -43.07300000  *
   779       H         57.97900000  *  145.55100000  * -42.87200000  *
   780       C         59.78200000  *  146.47800000  * -42.25400000  *
   781       H         60.44800000  *  145.70000000  * -42.62000000  *
   782       H         60.28600000  *  147.44000000  * -42.35600000  *
   783       C         59.49200000  *  146.22900000  * -40.76500000  *
   784       H         58.94200000  *  147.08300000  * -40.37400000  *
   785       H         58.87100000  *  145.33200000  * -40.67600000  *
   786       C         60.74500000  *  146.03800000  * -39.93500000  *
   787       H         61.36100000  *  145.25900000  * -40.37900000  *
   788       H         61.30800000  *  146.97100000  * -39.90700000  *
   789       C         60.37600000  *  145.60700000  * -38.51700000  *
   790       H         59.98500000  *  144.58900000  * -38.53700000  *
   791       H         61.27900000  *  145.61300000  * -37.90300000  *
   792       N         59.34600000  *  146.53100000  * -37.94700000  *
   793       H         58.44600000  *  146.48100000  * -38.44300000  *
   794       H         59.09000000  *  146.27800000  * -37.00400000  *
   795       H         59.61300000  *  147.50600000  * -37.97800000  *
   796       C         57.55800000  *  147.53800000  * -42.51200000  *
   797       O         56.61300000  *  147.23400000  * -41.78300000  *
   798       N         57.83900000  *  148.81400000  * -42.80000000  *
   799       H         58.66900000  *  149.00700000  * -43.36700000  *
   800       C         57.00300000  *  149.92700000  * -42.32800000  *
   801       H         56.89000000  *  149.84000000  * -41.24600000  *
   802       C         57.67600000  *  151.27400000  * -42.62900000  *
   803       H         58.66700000  *  151.28100000  * -42.17200000  *
   804       H         57.78900000  *  151.39800000  * -43.70600000  *
   805       C         56.85100000  *  152.43800000  * -42.05300000  *
   806       H         55.90000000  *  152.50000000  * -42.58400000  *
   807       H         56.64500000  *  152.24200000  * -40.99900000  *
   808       C         57.57200000  *  153.78600000  * -42.16900000  *
   809       H         58.48000000  *  153.75800000  * -41.56400000  *
   810       H         57.83700000  *  153.96800000  * -43.21200000  *
   811       C         56.64500000  *  154.90000000  * -41.66400000  *
   812       H         55.74500000  *  154.91300000  * -42.28700000  *
   813       H         56.33900000  *  154.66200000  * -40.64100000  *
   814       N         57.30300000  *  156.23100000  * -41.69500000  *
   815       H         57.56800000  *  156.49000000  * -42.63400000  *
   816       H         56.68100000  *  156.94800000  * -41.34700000  *
   817       H         58.13100000  *  156.24500000  * -41.11800000  *
   818       C         55.60000000  *  149.82300000  * -42.92100000  *
   819       O         54.62000000  *  150.05200000  * -42.21900000  *
   820       N         55.49500000  *  149.42600000  * -44.18900000  *
   821       H         56.35000000  *  149.26300000  * -44.71300000  *
   822       C         54.20500000  *  149.26000000  * -44.85200000  *
   823       H         53.62600000  *  150.17500000  * -44.72500000  *
   824       C         54.41000000  *  148.98800000  * -46.34000000  *
   825       H         54.98900000  *  149.80200000  * -46.77700000  *
   826       H         55.00200000  *  148.07700000  * -46.45200000  *
   827       C         53.12600000  *  148.85300000  * -47.10800000  *
   828       C         52.23100000  *  149.92200000  * -47.18600000  *
   829       H         52.46300000  *  150.85600000  * -46.69900000  *
   830       C         51.01500000  *  149.79500000  * -47.88400000  *
   831       H         50.32500000  *  150.62800000  * -47.91800000  *
   832       C         50.69700000  *  148.60300000  * -48.50200000  *
   833       H         49.75200000  *  148.50200000  * -49.02000000  *
   834       C         51.58700000  *  147.52100000  * -48.43200000  *
   835       H         51.33500000  *  146.58300000  * -48.91200000  *
   836       C         52.79500000  *  147.65400000  * -47.73300000  *
   837       H         53.46700000  *  146.81000000  * -47.67200000  *
   838       C         53.37400000  *  148.12200000  * -44.22700000  *
   839       O         52.16900000  *  148.28300000  * -44.00900000  *
   840       N         54.01600000  *  146.98100000  * -43.96600000  *
   841       H         55.00900000  *  146.90600000  * -44.17900000  *
   842       C         53.33800000  *  145.83600000  * -43.34100000  *
   843       H         52.47600000  *  145.52800000  * -43.93400000  *
   844       C         54.29200000  *  144.65000000  * -43.17000000  *
   845       H         55.15800000  *  145.02700000  * -42.63600000  *
   846       H         53.80700000  *  143.89200000  * -42.54700000  *
   847       C         54.73100000  *  144.00400000  * -44.46100000  *
   848       H         53.84700000  *  143.61400000  * -44.95900000  *
   849       H         55.19200000  *  144.69400000  * -45.15000000  *
   850       S         55.79700000  *  142.58100000  * -44.15400000  *
   851       C         57.05400000  *  143.29200000  * -43.18800000  *
   852       H         56.67800000  *  143.65800000  * -42.23500000  *
   853       H         57.80700000  *  142.53400000  * -42.98200000  *
   854       H         57.44300000  *  144.07900000  * -43.80900000  *
   855       C         52.84400000  *  146.26000000  * -41.95900000  *
   856       O         51.68200000  *  146.03200000  * -41.61400000  *
   857       N         53.72600000  *  146.88400000  * -41.17900000  *
   858       H         54.70100000  *  146.95700000  * -41.45300000  *
   859       C         53.34300000  *  147.35100000  * -39.84600000  *
   860       H         53.03400000  *  146.49700000  * -39.23800000  *
   861       C         54.50500000  *  148.07700000  * -39.15700000  *
   862       H         54.94100000  *  148.81500000  * -39.83000000  *
   863       H         54.12400000  *  148.60600000  * -38.28400000  *
   864       C         55.58400000  *  147.11500000  * -38.68500000  *
   865       O         55.26200000  *  145.90900000  * -38.57600000  *
   866       O         56.73300000  *  147.55200000  * -38.41700000  *
   867       C         52.15000000  *  148.27900000  * -39.96300000  *
   868       O         51.20300000  *  148.18000000  * -39.18700000  *
   869       N         52.18300000  *  149.16200000  * -40.95500000  *
   870       H         53.01600000  *  149.23700000  * -41.51800000  *
   871       C         51.08600000  *  150.10000000  * -41.17300000  *
   872       H         50.93100000  *  150.67400000  * -40.25800000  *
   873       C         51.42800000  *  151.06800000  * -42.31500000  *
   874       H         51.45500000  *  150.53900000  * -43.26600000  *
   875       H         50.66000000  *  151.83800000  * -42.36800000  *
   876       H         52.39300000  *  151.53600000  * -42.12800000  *
   877       C         49.78900000  *  149.37000000  * -41.49900000  *
   878       O         48.71100000  *  149.83600000  * -41.15600000  *
   879       N         49.90500000  *  148.22900000  * -42.16400000  *
   880       H         50.83800000  *  147.88500000  * -42.38200000  *
   881       C         48.74000000  *  147.45400000  * -42.57500000  *
   882       H         47.85700000  *  148.08600000  * -42.62800000  *
   883       H         48.90600000  *  147.02300000  * -43.58600000  *
   884       H         48.52600000  *  146.61900000  * -41.88800000  *
   885       H         72.54500000  *  137.05800000  * -55.15200000  *
   886       C         72.38600000  *  137.90500000  * -54.47400000  *
   887       O         73.28300000  *  138.71900000  * -54.28600000  *
   888       N         71.20100000  *  138.01500000  * -53.89800000  *
   889       H         70.47300000  *  137.31400000  * -54.05700000  *
   890       C         70.96800000  *  139.10000000  * -52.94900000  *
   891       H         71.50000000  *  140.00600000  * -53.22900000  *
   892       C         69.47700000  *  139.40500000  * -52.82500000  *
   893       H         69.09300000  *  139.71900000  * -53.79200000  *
   894       H         68.93000000  *  138.50600000  * -52.53300000  *
   895       C         69.17800000  *  140.45400000  * -51.81200000  *
   896       N         69.23000000  *  140.42300000  * -50.45900000  *
   897       C         68.94700000  *  141.69100000  * -50.01400000  *
   898       H         68.96900000  *  142.01200000  * -48.98400000  *
   899       N         68.72400000  *  142.47200000  * -51.05500000  *
   900       H         68.47200000  *  143.44500000  * -51.00700000  *
   901       C         68.85400000  *  141.75000000  * -52.15500000  *
   902       H         68.77100000  *  142.12600000  * -53.16500000  *
   903       C         71.52100000  *  138.65700000  * -51.58300000  *
   904       O         72.28000000  *  139.38000000  * -50.94700000  *
   905       N         71.11400000  *  137.47100000  * -51.14500000  *
   906       H         70.37100000  *  137.01600000  * -51.66500000  *
   907       C         71.55500000  *  136.88000000  * -49.87700000  *
   908       H         71.18200000  *  135.84900000  * -49.87900000  *
   909       C         73.07600000  *  136.85300000  * -49.83700000  *
   910       H         73.53100000  *  137.83300000  * -49.86900000  *
   911       H         73.36600000  *  136.47900000  * -48.85100000  *
   912       C         73.64700000  *  135.85900000  * -50.81700000  *
   913       H         73.29800000  *  134.87100000  * -50.67200000  *
   914       H         73.21600000  *  136.10500000  * -51.78700000  *
   915       C         75.11700000  *  136.08400000  * -50.99900000  *
   916       H         75.61200000  *  135.95400000  * -50.03300000  *
   917       H         75.49500000  *  135.33200000  * -51.69500000  *
   918       N         75.35800000  *  137.42700000  * -51.50600000  *
   919       H         74.62100000  *  138.12700000  * -51.38200000  *
   920       C         76.54800000  *  137.85900000  * -51.89000000  *
   921       N         77.59300000  *  137.04400000  * -51.81500000  *
   922       H         77.44700000  *  136.21200000  * -51.26800000  *
   923       H         78.49900000  *  137.44300000  * -51.92100000  *
   924       N         76.69000000  *  139.09300000  * -52.35600000  *
   925       H         75.86000000  *  139.69200000  * -52.33800000  *
   926       H         77.56200000  *  139.47800000  * -52.67100000  *
   927       C         71.03700000  *  137.42400000  * -48.54200000  *
   928       O         71.18700000  *  136.76800000  * -47.50900000  *
   929       N         70.43700000  *  138.60400000  * -48.51600000  *
   930       H         70.32800000  *  139.16900000  * -49.34700000  *
   931       C         69.93700000  *  139.07600000  * -47.23100000  *
   932       H         69.76500000  *  138.24900000  * -46.54100000  *
   933       C         70.93500000  *  140.04200000  * -46.56200000  *
   934       H         71.90900000  *  139.56600000  * -46.50900000  *
   935       H         71.04400000  *  140.94300000  * -47.17900000  *
   936       C         70.51300000  *  140.42800000  * -45.14700000  *
   937       O         70.17200000  *  139.51500000  * -44.35500000  *
   938       O         70.51000000  *  141.64400000  * -44.82500000  *
   939       C         68.58700000  *  139.73400000  * -47.37800000  *
   940       O         68.35000000  *  140.81000000  * -46.83500000  *
   941       N         67.68700000  *  139.08300000  * -48.11000000  *
   942       H         67.94300000  *  138.20800000  * -48.54500000  *
   943       C         66.35900000  *  139.64900000  * -48.29900000  *
   944       H         66.47700000  *  140.66700000  * -48.65900000  *
   945       C         65.54600000  *  138.81300000  * -49.28800000  *
   946       H         65.58300000  *  137.78400000  * -48.94500000  *
   947       H         64.50600000  *  139.14000000  * -49.25500000  *
   948       C         66.02700000  *  138.85500000  * -50.73600000  *
   949       H         67.06400000  *  138.52800000  * -50.78200000  *
   950       C         65.17300000  *  137.91700000  * -51.58300000  *
   951       H         64.15900000  *  138.30500000  * -51.68800000  *
   952       H         65.63400000  *  137.80700000  * -52.55000000  *
   953       H         65.13400000  *  136.93500000  * -51.11000000  *
   954       C         65.92100000  *  140.27700000  * -51.26400000  *
   955       H         66.42000000  *  140.99600000  * -50.63300000  *
   956       H         66.44200000  *  140.27500000  * -52.20900000  *
   957       H         64.88200000  *  140.56100000  * -51.39700000  *
   958       C         65.59400000  *  139.73400000  * -46.98200000  *
   959       O         65.58600000  *  138.79200000  * -46.16600000  *
   960       N         64.95700000  *  140.85600000  * -46.74400000  *
   961       H         64.95800000  *  141.58300000  * -47.44700000  *
   962       C         64.17100000  *  141.06500000  * -45.54300000  *
   963       H         63.56300000  *  140.17300000  * -45.39700000  *
   964       C         65.05300000  *  141.23900000  * -44.28600000  *
   965       H         64.41900000  *  141.31200000  * -43.40200000  *
   966       H         65.64700000  *  140.33200000  * -44.16200000  *
   967       C         65.99900000  *  142.44700000  * -44.30000000  *
   968       H         66.42500000  *  142.56800000  * -45.29300000  *
   969       H         65.44800000  *  143.34800000  * -44.03400000  *
   970       C         67.14100000  *  142.20300000  * -43.30500000  *
   971       H         66.72800000  *  141.96100000  * -42.32300000  *
   972       H         67.71700000  *  141.34500000  * -43.66100000  *
   973       C         68.06000000  *  143.42200000  * -43.17800000  *
   974       H         68.16400000  *  143.89400000  * -44.16000000  *
   975       H         67.58600000  *  144.14900000  * -42.50800000  *
   976       N         69.39600000  *  143.01900000  * -42.66100000  *
   977       H         69.88100000  *  142.42500000  * -43.34700000  *
   978       H         69.97200000  *  143.82600000  * -42.45800000  *
   979       H         69.30200000  *  142.49300000  * -41.80100000  *
   980       C         63.26300000  *  142.22600000  * -45.84000000  *
   981       O         63.61600000  *  143.06500000  * -46.66900000  *
   982       N         62.11200000  *  142.30300000  * -45.18600000  *
   983       C         61.62600000  *  141.34600000  * -44.17100000  *
   984       H         62.10000000  *  141.53200000  * -43.20900000  *
   985       H         61.74500000  *  140.31100000  * -44.47600000  *
   986       C         60.16400000  *  141.66900000  * -44.09500000  *
   987       H         59.73700000  *  141.34900000  * -43.14300000  *
   988       H         59.63700000  *  141.20600000  * -44.93200000  *
   989       C         60.16000000  *  143.18900000  * -44.24800000  *
   990       H         60.51600000  *  143.64900000  * -43.32100000  *
   991       H         59.20200000  *  143.56500000  * -44.57400000  *
   992       C         61.14500000  *  143.38000000  * -45.40300000  *
   993       H         60.63400000  *  143.20500000  * -46.34500000  *
   994       C         61.77100000  *  144.77100000  * -45.44800000  *
   995       O         61.39200000  *  145.58400000  * -46.27300000  *
   996       N         62.73700000  *  145.08800000  * -44.56700000  *
   997       H         62.97900000  *  144.40300000  * -43.86700000  *
   998       C         63.46000000  *  146.38500000  * -44.55000000  *
   999       H         62.73000000  *  147.19400000  * -44.48500000  *
  1000       C         64.38800000  *  146.46800000  * -43.32400000  *
  1001       H         65.06700000  *  145.61500000  * -43.33000000  *
  1002       H         64.99200000  *  147.37300000  * -43.41000000  *
  1003       C         63.65700000  *  146.53200000  * -41.97700000  *
  1004       H         62.95300000  *  147.36600000  * -41.99700000  *
  1005       H         63.10200000  *  145.61000000  * -41.81900000  *
  1006       C         64.63100000  *  146.71500000  * -40.81100000  *
  1007       O         65.65900000  *  146.05700000  * -40.71500000  *
  1008       N         64.35500000  *  147.60100000  * -39.88000000  *
  1009       H         65.01000000  *  147.71200000  * -39.11900000  *
  1010       H         63.53800000  *  148.18900000  * -39.94600000  *
  1011       C         64.32700000  *  146.65800000  * -45.79900000  *
  1012       O         64.60000000  *  147.80900000  * -46.13400000  *
  1013       N         64.76700000  *  145.60300000  * -46.48800000  *
  1014       H         64.43400000  *  144.69200000  * -46.20500000  *
  1015       C         65.53500000  *  145.65700000  * -47.73500000  *
  1016       H         66.11000000  *  146.58400000  * -47.77300000  *
  1017       C         66.52700000  *  144.46600000  * -47.77700000  *
  1018       H         66.03200000  *  143.55300000  * -47.46200000  *
  1019       H         66.86800000  *  144.31000000  * -48.79900000  *
  1020       C         67.77800000  *  144.68100000  * -46.94600000  *
  1021       O         68.10300000  *  145.78500000  * -46.54300000  *
  1022       N         68.53300000  *  143.64500000  * -46.65300000  *
  1023       H         69.41000000  *  143.80200000  * -46.18300000  *
  1024       H         68.27200000  *  142.68800000  * -46.87900000  *
  1025       C         64.62900000  *  145.69000000  * -48.97800000  *
  1026       O         65.14800000  *  145.60800000  * -50.08900000  *
  1027       N         63.30000000  *  145.80300000  * -48.83400000  *
  1028       H         62.89500000  *  145.87300000  * -47.90900000  *
  1029       C         62.40600000  *  145.84500000  * -49.97900000  *
  1030       H         62.94700000  *  145.74800000  * -50.91900000  *
  1031       C         61.36900000  *  144.72100000  * -49.88900000  *
  1032       H         60.76900000  *  144.86100000  * -48.99200000  *
  1033       H         60.74400000  *  144.79800000  * -50.77200000  *
  1034       C         62.03600000  *  143.32400000  * -49.85900000  *
  1035       H         62.67100000  *  143.24000000  * -48.98800000  *
  1036       C         61.00200000  *  142.26000000  * -49.77100000  *
  1037       H         60.24600000  *  142.42800000  * -50.53400000  *
  1038       H         61.44700000  *  141.27100000  * -49.89000000  *
  1039       H         60.52000000  *  142.31900000  * -48.79800000  *
  1040       C         62.89500000  *  143.12600000  * -51.08400000  *
  1041       H         63.82900000  *  143.66800000  * -50.95600000  *
  1042       H         63.12900000  *  142.06900000  * -51.20900000  *
  1043       H         62.39300000  *  143.49200000  * -51.96600000  *
  1044       C         61.76300000  *  147.21800000  * -49.95200000  *
  1045       O         61.15000000  *  147.60200000  * -48.96600000  *
  1046       N         61.89900000  *  147.98900000  * -51.02500000  *
  1047       H         62.39200000  *  147.61900000  * -51.83200000  *
  1048       C         61.44200000  *  149.38000000  * -51.06300000  *
  1049       H         61.06000000  *  149.68300000  * -50.09000000  *
  1050       C         62.59900000  *  150.30700000  * -51.41800000  *
  1051       H         62.92000000  *  150.09100000  * -52.43800000  *
  1052       H         62.22600000  *  151.32900000  * -51.37700000  *
  1053       C         63.81000000  *  150.18200000  * -50.49300000  *
  1054       H         64.25800000  *  149.19700000  * -50.60300000  *
  1055       C         64.80900000  *  151.23500000  * -50.92600000  *
  1056       H         64.45100000  *  152.21900000  * -50.63000000  *
  1057       H         65.76600000  *  151.02200000  * -50.46200000  *
  1058       H         64.93700000  *  151.23100000  * -52.00400000  *
  1059       C         63.48600000  *  150.42000000  * -49.02000000  *
  1060       H         62.87600000  *  149.60100000  * -48.65000000  *
  1061       H         64.40300000  *  150.44400000  * -48.43500000  *
  1062       H         62.94600000  *  151.36000000  * -48.89800000  *
  1063       C         60.31600000  *  149.55400000  * -52.06000000  *
  1064       O         60.40900000  *  149.08700000  * -53.18200000  *
  1065       N         59.26800000  *  150.25600000  * -51.67700000  *
  1066       H         59.36500000  *  150.76300000  * -50.80000000  *
  1067       C         58.08300000  *  150.44700000  * -52.50800000  *
  1068       H         58.17300000  *  149.92400000  * -53.45700000  *
  1069       C         56.81900000  *  149.90600000  * -51.78600000  *
  1070       H         55.94300000  *  150.08700000  * -52.41500000  *
  1071       C         56.95000000  *  148.40400000  * -51.54300000  *
  1072       H         57.75300000  *  148.18300000  * -50.83300000  *
  1073       H         56.01300000  *  148.00400000  * -51.15200000  *
  1074       H         57.15800000  *  147.91500000  * -52.48900000  *
  1075       C         56.64700000  *  150.60600000  * -50.43300000  *
  1076       H         57.48200000  *  150.38000000  * -49.77500000  *
  1077       H         56.60500000  *  151.68300000  * -50.57600000  *
  1078       C         55.37000000  *  150.22200000  * -49.68600000  *
  1079       H         55.48900000  *  149.24800000  * -49.22200000  *
  1080       H         55.17000000  *  150.96500000  * -48.91000000  *
  1081       H         54.52900000  *  150.16800000  * -50.38500000  *
  1082       C         57.87200000  *  151.93000000  * -52.81700000  *
  1083       O         58.38200000  *  152.79400000  * -52.10000000  *
  1084       N         57.14900000  *  152.22000000  * -53.89700000  *
  1085       H         56.70500000  *  151.48200000  * -54.43300000  *
  1086       C         56.84100000  *  153.60200000  * -54.22700000  *
  1087       H         57.16800000  *  154.27800000  * -53.43100000  *
  1088       C         57.50400000  *  154.05300000  * -55.54100000  *
  1089       H         57.21800000  *  155.07000000  * -55.80500000  *
  1090       H         58.58200000  *  154.04400000  * -55.38800000  *
  1091       C         57.19300000  *  153.14600000  * -56.70100000  *
  1092       O         56.13500000  *  152.53500000  * -56.76400000  *
  1093       N         58.11500000  *  153.07200000  * -57.64100000  *
  1094       H         57.83300000  *  152.61700000  * -58.48600000  *
  1095       H         58.88600000  *  153.71500000  * -57.62100000  *
  1096       C         55.33100000  *  153.75800000  * -54.32100000  *
  1097       O         54.57600000  *  152.79900000  * -54.11400000  *
  1098       N         54.88500000  *  154.97100000  * -54.62100000  *
  1099       H         55.52100000  *  155.73600000  * -54.79200000  *
  1100       C         53.46400000  *  155.24700000  * -54.72300000  *
  1101       H         52.92700000  *  154.82600000  * -53.87200000  *
  1102       C         53.20900000  *  156.78000000  * -54.75500000  *
  1103       H         52.16900000  *  156.98000000  * -55.02600000  *
  1104       C         53.47800000  *  157.39700000  * -53.41000000  *
  1105       H         54.52100000  *  157.25500000  * -53.13000000  *
[...]
 1005  H   0.82908
 1006  C   1.06521   0.79480   0.73692   0.79845
 1007  O   1.87777   1.39929   1.59395   1.82320
 1008  N   1.52710   1.34878   1.40369   1.32053
 1009  H   0.65648
 1010  H   0.66440
 1011  C   1.08416   0.76004   0.77995   0.81303
 1012  O   1.88505   1.65295   1.31620   1.73769
 1013  N   1.55276   1.50932   1.20437   1.29789
 1014  H   0.66516
 1015  C   1.07181   0.95171   1.09248   0.81830
 1016  H   0.80027
 1017  C   1.06971   1.04662   1.08822   1.16849
 1018  H   0.83192
 1019  H   0.79687
 1020  C   1.05726   0.80929   0.76825   0.75100
 1021  O   1.87606   1.77193   1.38254   1.63256
 1022  N   1.53221   1.30930   1.19625   1.59202
 1023  H   0.66947
 1024  H   0.65328
 1025  C   1.08604   0.78604   0.72058   0.85388
 1026  O   1.87883   1.76717   1.61135   1.37858
 1027  N   1.54083   1.12694   1.66390   1.18303
 1028  H   0.65320
 1029  C   1.06989   0.96991   0.97952   0.97552
 1030  H   0.81037
 1031  C   1.06734   1.06477   0.99781   1.17296
 1032  H   0.83718
 1033  H   0.84817
 1034  C   1.04104   1.01206   0.94631   1.06214
 1035  H   0.85555
 1036  C   1.04922   1.12595   1.11852   1.17085
 1037  H   0.84477
 1038  H   0.84889
 1039  H   0.86567
 1040  C   1.05158   1.14139   1.17180   1.09932
 1041  H   0.84466
 1042  H   0.85770
 1043  H   0.84969
 1044  C   1.07676   0.74918   0.84225   0.75521
 1045  O   1.87195   1.53847   1.79753   1.44552
 1046  N   1.54628   1.55344   1.17182   1.25001
 1047  H   0.64557
 1048  C   1.06491   0.98783   0.82720   1.09912
 1049  H   0.81493
 1050  C   1.06436   1.02483   1.10362   1.12734
 1051  H   0.84633
 1052  H   0.84042
 1053  C   1.04748   0.96965   1.07005   0.96878
 1054  H   0.86535
 1055  C   1.05404   1.12848   1.12646   1.16515
 1056  H   0.84589
 1057  H   0.84815
 1058  H   0.85957
 1059  C   1.05480   1.17608   1.17680   1.04575
 1060  H   0.84159
 1061  H   0.85146
 1062  H   0.84757
 1063  C   1.07465   0.79905   0.74454   0.81775
 1064  O   1.86829   1.83066   1.62437   1.34333
 1065  N   1.54047   1.19381   1.46673   1.29573
 1066  H   0.64576
 1067  C   1.07608   0.88914   1.00677   1.04184
 1068  H   0.80944
 1069  C   1.06434   1.01497   0.99277   1.01973
 1070  H   0.85012
 1071  C   1.05464   1.18119   1.03416   1.17648
 1072  H   0.84352
 1073  H   0.84503
 1074  H   0.85311
 1075  C   1.05399   1.06971   1.12089   1.03087
 1076  H   0.84602
 1077  H   0.86046
 1078  C   1.05244   1.08916   1.15709   1.13187
 1079  H   0.84874
 1080  H   0.87780
 1081  H   0.84699
 1082  C   1.08643   0.74316   0.88834   0.74294
 1083  O   1.88696   1.56746   1.57601   1.55575
 1084  N   1.54300   1.50770   1.14373   1.33805
 1085  H   0.64302
 1086  C   1.06235   0.97283   0.88503   1.03677
 1087  H   0.80498
 1088  C   1.07273   1.18101   1.12923   1.02511
 1089  H   0.80850
 1090  H   0.80504
 1091  C   1.06060   0.76200   0.77081   0.82320
 1092  O   1.88017   1.35501   1.56858   1.83549
 1093  N   1.53406   1.29734   1.49476   1.27221
 1094  H   0.67140
 1095  H   0.66555
 1096  C   1.08287   0.88464   0.75980   0.71375
 1097  O   1.88785   1.65348   1.46783   1.58755
 1098  N   1.54019   1.14550   1.19741   1.67255
 1099  H   0.66349
 1100  C   1.08561   0.83683   1.05845   1.08306
 1101  H   0.80348
 1102  C   1.08434   0.99180   0.86665   0.88974
 1103  H   0.84643
 1104  C   1.05382   1.18384   1.18032   1.05427
 1105  H   0.84138
 1106  H   0.82405
 1107  H   0.82936
 1108  O   1.84871   1.59268   1.82309   1.34559
 1109  H   0.64217
 1110  C   1.07322   0.78894   0.75538   0.82395
 1111  O   1.87785   1.27988   1.68901   1.84879
 1112  N   1.53328   1.19329   1.53451   1.21098
 1113  H   0.66732
 1114  C   1.05709   1.15380   1.13345   0.89300
 1115  H   0.83541
 1116  H   0.83763
 1117  H   0.83542
 1118  H   0.83953
 1119  C   1.10509   0.75492   0.73541   0.91355
 1120  O   1.88313   1.71067   1.59673   1.48269
 1121  N   1.54488   1.42794   1.34578   1.20817
 1122  H   0.65355
 1123  C   1.08075   0.93095   1.08456   0.93147
 1124  H   0.80937
 1125  C   1.07314   1.07908   0.95371   0.98251
 1126  H   0.84402
 1127  C   1.05810   1.18714   1.08402   1.12931
 1128  H   0.84348
 1129  H   0.84845
 1130  H   0.85205
 1131  C   1.05414   1.07579   1.13453   1.01859
 1132  H   0.85359
 1133  H   0.85460
 1134  C   1.04919   1.14385   1.15100   1.09052
 1135  H   0.84993
 1136  H   0.85977
 1137  H   0.84950
 1138  C   1.07230   0.84169   0.73653   0.77766
 1139  O   1.87774   1.89040   1.52082   1.39072
 1140  N   1.54487   1.10281   1.52667   1.33559
 1141  H   0.63231
 1142  C   1.06987   0.84622   1.05356   1.03807
 1143  H   0.81791
 1144  C   1.06004   1.09258   1.04630   1.09588
 1145  H   0.83652
 1146  H   0.84632
 1147  C   1.05107   1.08572   1.04436   1.07824
 1148  H   0.84964
 1149  H   0.84468
 1150  C   1.05929   1.08230   1.05502   1.09756
 1151  H   0.84238
 1152  H   0.83237
 1153  C   1.07897   1.02200   0.99739   1.07439
 1154  H   0.81103
 1155  H   0.83313
 1156  N   1.45902   1.23105   1.22827   1.25581
 1157  H   0.69699
 1158  H   0.69956
 1159  H   0.68579
 1160  C   1.07826   0.77975   0.75057   0.82540
 1161  O   1.88113   1.77246   1.69315   1.29050
 1162  N   1.54484   1.32899   1.42523   1.23098
 1163  H   0.64039
 1164  C   1.07027   0.91914   0.95779   1.02906
 1165  H   0.83198
 1166  C   1.06278   1.09998   1.01951   1.13300
 1167  H   0.83519
 1168  H   0.84514
 1169  C   1.05375   1.07081   0.96102   0.96348
 1170  H   0.85946
 1171  C   1.06224   1.16616   1.13949   1.09220
 1172  H   0.85200
 1173  H   0.84905
 1174  H   0.85253
 1175  C   1.05739   1.18273   1.13711   1.08874
 1176  H   0.85362
 1177  H   0.84810
 1178  H   0.85443
 1179  C   1.08499   0.79134   0.79779   0.75891
 1180  O   1.88086   1.63452   1.59855   1.53765
 1181  N   1.54429   1.36988   1.43791   1.16031
 1182  H   0.64766
 1183  C   1.06745   0.91175   0.92612   1.05318
 1184  H   0.82550
 1185  C   1.05943   1.16291   1.08677   1.15395
 1186  H   0.82150
 1187  H   0.83207
 1188  H   0.82967
 1189  C   1.08896   0.78835   0.78109   0.74725
 1190  O   1.87468   1.84761   1.37147   1.57784
 1191  N   1.54667   1.16475   1.34628   1.47492
 1192  H   0.66850
 1193  C   1.07380   0.88529   1.07662   0.93194
 1194  H   0.81644
 1195  C   1.07728   1.14182   1.19081   0.99888
 1196  H   0.80623
 1197  H   0.82853
 1198  C   1.07445   0.73634   0.73797   0.69653
 1199  O   1.88636   1.64158   1.52196   1.68219
 1200  O   1.88010   1.82504   1.43169   1.74291
 1201  C   1.09191   0.81681   0.79887   0.73622
 1202  O   1.88665   1.27422   1.82162   1.57389
 1203  N   1.56857   1.28814   1.17247   1.53841
 1204  H   0.67915
 1205  C   1.07961   1.01945   0.91902   0.95352
 1206  H   0.83992
 1207  C   1.05573   1.07825   1.20237   0.96255
 1208  H   0.81423
 1209  H   0.81942
 1210  C   1.07457   0.97379   0.97791   0.97052
 1211  C   1.09012   1.04126   1.04170   1.01418
 1212  H   0.83973
 1213  C   1.08870   0.98531   1.06209   1.01047
 1214  H   0.84226
 1215  C   1.08756   1.05974   0.99201   1.03223
 1216  H   0.84780
 1217  C   1.08946   1.03726   1.03584   0.98893
 1218  H   0.83121
 1219  C   1.08746   0.98570   1.06438   1.02374
 1220  H   0.83626
 1221  C   1.08994   0.80338   0.77299   0.76289
 1222  O   1.88533   1.44381   1.55860   1.71374
 1223  N   1.53923   1.41450   1.43771   1.13676
 1224  H   0.68670
 1225  C   1.06830   0.99021   1.06838   0.98061
 1226  H   0.81755
 1227  H   0.80556
 1228  C   1.07953   0.82829   0.77923   0.70420
 1229  O   1.87723   1.84011   1.32213   1.60808
 1230  N   1.55930   1.30220   1.23373   1.45056
 1231  H   0.67533
 1232  C   1.07787   0.89788   1.03341   0.96920
 1233  H   0.83163
 1234  C   1.06807   1.11500   0.95051   1.17371
 1235  H   0.84199
 1236  H   0.82751
 1237  C   1.05204   1.03161   0.96142   1.01266
 1238  H   0.86200
 1239  C   1.05585   1.17040   1.06673   1.15980
 1240  H   0.85844
 1241  H   0.83923
 1242  H   0.86032
 1243  C   1.05559   1.17154   1.18912   1.04530
 1244  H   0.84156
 1245  H   0.84061
 1246  H   0.85746
 1247  C   1.09494   0.85776   0.76655   0.72782
 1248  O   1.88132   1.32392   1.78565   1.59277
 1249  N   1.58212   1.28164   1.23281   1.52137
 1250  H   0.66122
 1251  C   1.06875   0.96505   0.99766   0.95376
 1252  H   0.83628
 1253  C   1.05861   1.13935   1.09719   1.17444
 1254  H   0.84375
 1255  H   0.80952
 1256  H   0.81105
 1257  C   1.07559   0.83399   0.75262   0.78170
 1258  O   1.88399   1.49878   1.59884   1.64916
 1259  N   1.54298   1.31160   1.51238   1.14393
 1260  H   0.67643
 1261  C   1.06252   0.92390   1.14578   1.10580
 1262  H   0.82620
 1263  H   0.82953
 1264  H   0.83887
 1265  H   0.84111
 1266  C   1.10477   0.72494   0.79430   0.87701
 1267  O   1.88388   1.53275   1.36149   1.88304
 1268  N   1.54284   1.48760   1.35124   1.14841
 1269  H   0.67742
 1270  C   1.07275   1.11677   0.96720   0.82287
 1271  H   0.80234
 1272  C   1.05757   1.09013   1.02813   1.15064
 1273  H   0.83947
 1274  H   0.82106
 1275  C   1.06442   0.97788   0.95018   0.96834
 1276  C   1.08298   1.02003   0.99430   1.05939
 1277  H   0.83872
 1278  C   1.08254   1.04667   1.02669   0.99717
 1279  H   0.84381
 1280  C   1.08135   1.00636   1.05594   1.02603
 1281  H   0.84883
 1282  C   1.08075   1.02435   1.00346   1.05470
 1283  H   0.85431
 1284  C   1.08267   1.06000   1.02724   0.99695
 1285  H   0.84085
 1286  C   1.08011   0.76677   0.78613   0.79923
 1287  O   1.88377   1.53935   1.68054   1.53381
 1288  N   1.53638   1.17532   1.34776   1.43119
 1289  H   0.67349
 1290  C   1.05780   1.14236   0.97562   0.99833
 1291  H   0.81502
 1292  H   0.78881
 1293  C   1.07421   0.78769   0.75734   0.80195
 1294  O   1.88093   1.54142   1.38409   1.84198
 1295  N   1.53616   1.41025   1.37762   1.17731
 1296  H   0.65047
 1297  C   1.07419   1.00276   1.19838   0.87818
 1298  H   0.81339
 1299  H   0.79388
 1300  C   1.08207   0.77429   0.74497   0.80735
 1301  O   1.88291   1.52134   1.53220   1.73129
 1302  N   1.56466   1.44483   1.16574   1.26742
 1303  C   1.07077   1.06939   0.87153   1.05675
 1304  H   0.83632
 1305  H   0.84105
 1306  C   1.05703   1.04832   1.13467   1.05895
 1307  H   0.84520
 1308  H   0.80919
 1309  C   1.06100   1.08098   0.98374   1.17250
 1310  H   0.83516
 1311  H   0.81882
 1312  C   1.07355   1.05299   1.00091   0.86835
 1313  H   0.81279
 1314  C   1.08817   0.76386   0.76841   0.82878
 1315  O   1.88395   1.42681   1.43530   1.88338
 1316  N   1.54310   1.40336   1.48374   1.11754
 1317  H   0.64349
 1318  C   1.08224   1.04970   1.11423   0.89094
 1319  H   0.80061
 1320  H   0.78716
 1321  C   1.08831   0.82554   0.73017   0.77831
 1322  O   1.88491   1.70328   1.72957   1.32940
 1323  N   1.55117   1.23250   1.41132   1.34472
 1324  H   0.68861
 1325  C   1.07568   0.85985   1.06394   0.97821
 1326  H   0.82197
 1327  C   1.05962   1.16904   1.07543   0.97632
 1328  H   0.83482
 1329  H   0.83873
 1330  C   1.05817   1.13854   1.07487   1.02386
 1331  H   0.82458
 1332  H   0.87151
 1333  C   1.06375   1.08738   1.09996   0.78148
 1334  H   0.85049
 1335  H   0.81938
 1336  N   1.53282   1.62698   1.28990   1.09340
 1337  H   0.64880
 1338  C   0.97601   0.83630   0.80289   0.79449
 1339  N   1.50146   1.56333   1.25850   1.24811
 1340  H   0.67472
 1341  H   0.62629
 1342  N   1.50406   1.55699   1.35355   1.14112
 1343  H   0.64455
 1344  H   0.63714
 1345  C   1.08268   0.75737   0.77365   0.84391
 1346  O   1.88762   1.48098   1.64715   1.56803
 1347  N   1.54315   1.54525   1.19793   1.24077
 1348  H   0.67327
 1349  C   1.08992   1.00016   1.00961   0.91834
 1350  H   0.79961
 1351  C   1.08582   0.92891   0.92555   0.87450
 1352  H   0.85103
 1353  C   1.05835   1.09866   1.12838   1.20344
 1354  H   0.82591
 1355  H   0.83282
 1356  H   0.83124
 1357  O   1.84248   1.58481   1.64223   1.57219
 1358  H   0.62429
 1359  C   1.07913   0.80826   0.78940   0.75821
 1360  O   1.88629   1.54318   1.79584   1.37745
 1361  N   1.55284   1.32705   1.29595   1.37697
 1362  H   0.65160
 1363  C   1.07399   0.98936   0.92664   0.99391
 1364  H   0.81648
 1365  C   1.05776   1.09595   1.06896   1.08580
 1366  H   0.84024
 1367  H   0.83164
 1368  C   1.06163   0.97109   0.97557   1.05687
 1369  C   1.08276   0.97443   1.07972   0.99865
 1370  H   0.84538
 1371  C   1.08357   1.08285   0.99539   1.00978
 1372  H   0.80354
 1373  C   1.06587   0.82599   0.89585   0.91667
 1374  O   1.84124   1.47053   1.54201   1.69695
 1375  H   0.63869
 1376  C   1.07431   0.98979   1.09275   1.06658
 1377  H   0.84519
 1378  C   1.08177   1.06513   0.99825   0.99581
 1379  H   0.85712
 1380  C   1.08169   0.77676   0.73426   0.82079
 1381  O   1.88480   1.39007   1.55545   1.82905
 1382  N   1.55035   1.20039   1.60179   1.14833
 1383  H   0.66100
 1384  C   1.08726   1.11730   1.03505   0.83709
 1385  H   0.82112
 1386  C   1.08258   0.83212   0.89057   1.00032
 1387  H   0.86759
 1388  C   1.05719   1.09872   1.14121   1.18951
 1389  H   0.83149
 1390  H   0.84512
 1391  H   0.84147
 1392  O   1.84701   1.32400   1.76613   1.66713
 1393  H   0.61654
 1394  C   1.08199   0.82807   0.76383   0.79199
 1395  O   1.88730   1.29171   1.70653   1.67748
 1396  N   1.54291   1.22805   1.27080   1.47580
 1397  H   0.64938
 1398  C   1.07064   0.98387   1.04051   1.07618
 1399  H   0.84416
 1400  H   0.80846
 1401  C   1.07034   0.85082   0.72015   0.75159
 1402  O   1.88496   1.70082   1.45748   1.55947
 1403  N   1.55355   1.14739   1.51370   1.33254
 1404  H   0.67998
 1405  C   1.07057   0.82921   0.98718   1.12844
 1406  H   0.81440
 1407  C   1.05338   1.16419   0.99024   1.05285
 1408  H   0.83916
 1409  H   0.83642
 1410  C   1.05972   1.20563   1.01161   1.13788
 1411  H   0.84245
 1412  H   0.82587
 1413  C   1.06685   0.72259   0.72037   0.72775
 1414  O   1.88752   1.47415   1.82402   1.63752
 1415  O   1.88504   1.51741   1.58616   1.81394
 1416  C   1.08681   0.77120   0.86258   0.75475
 1417  O   1.88735   1.64830   1.65284   1.40921
 1418  N   1.54585   1.31031   1.19195   1.47860
 1419  H   0.65325
 1420  C   1.07214   1.06280   0.88118   1.00757
 1421  H   0.84365
 1422  C   1.05449   1.01860   1.03231   0.97094
 1423  H   0.83623
 1424  C   1.05592   1.17746   1.04871   1.19329
 1425  H   0.84540
 1426  H   0.83574
 1427  H   0.83799
 1428  C   1.05455   1.18136   1.16761   1.06139
 1429  H   0.84072
 1430  H   0.83973
 1431  H   0.85198
 1432  C   1.07571   0.77103   0.73156   0.84218
 1433  O   1.88365   1.36379   1.63742   1.76954
 1434  N   1.53828   1.27319   1.47277   1.21099
 1435  H   0.66894
 1436  C   1.07703   1.00718   1.05454   0.86806
 1437  H   0.82302
 1438  C   1.06066   1.02667   1.01611   0.97678
 1439  H   0.84055
 1440  C   1.05419   1.18423   1.09822   1.12131
 1441  H   0.84076
 1442  H   0.84087
 1443  H   0.85068
 1444  C   1.05738   1.18971   1.16676   1.05258
 1445  H   0.84620
 1446  H   0.83566
 1447  H   0.83864
 1448  C   1.08151   0.80656   0.78646   0.75134
 1449  O   1.88319   1.81138   1.47303   1.46017
 1450  N   1.53602   1.23704   1.43138   1.31650
 1451  H   0.66499
 1452  C   1.07958   0.90430   0.96839   1.14834
 1453  H   0.80513
 1454  C   1.07973   0.93533   0.82452   0.98299
 1455  H   0.86665
 1456  C   1.05746   1.09503   1.13586   1.19628
 1457  H   0.82479
 1458  H   0.82199
 1459  H   0.84130
 1460  O   1.84757   1.47764   1.49394   1.78190
 1461  H   0.64887
 1462  C   1.07069   0.75397   0.82643   0.79820
 1463  O   1.88060   1.50678   1.88250   1.36399
 1464  N   1.53716   1.55046   1.12174   1.29442
 1465  H   0.65715
 1466  C   1.05407   1.16776   0.87311   1.13571
 1467  H   0.83037
 1468  H   0.83690
 1469  H   0.85122
 1470  H   0.82726
 1471  C   1.10849   0.72193   0.77564   0.90300
 1472  O   1.87917   1.50024   1.39717   1.89102
 1473  N   1.54808   1.50772   1.35870   1.13689
 1474  H   0.67062
 1475  C   1.07819   1.08321   1.04078   0.80197
 1476  H   0.80360
 1477  C   1.05902   1.13417   0.99963   1.10171
 1478  H   0.81861
 1479  H   0.82206
 1480  C   1.06596   0.97598   0.99289   1.00547
 1481  C   1.08235   0.99065   1.02464   1.00446
 1482  H   0.83751
 1483  C   1.07640   1.10518   1.04970   1.06610
 1484  H   0.82023
 1485  C   1.07255   0.88642   0.88196   0.87958
 1486  O   1.83869   1.35506   1.61289   1.73267
 1487  H   0.61902
 1488  C   1.07840   0.98863   1.10015   1.09711
 1489  H   0.82134
 1490  C   1.08801   1.07810   0.97913   0.96930
 1491  H   0.83593
 1492  C   1.08085   0.79999   0.76893   0.79201
 1493  O   1.88630   1.81383   1.69953   1.28030
 1494  N   1.53470   1.25580   1.50887   1.18462
 1495  H   0.67093
 1496  C   1.06143   0.92035   1.08958   1.16684
 1497  H   0.83438
 1498  H   0.82972
 1499  H   0.83839
 1500  H   0.82487
 1501  C   1.10804   0.78632   0.88375   0.71616
 1502  O   1.88011   1.43050   1.87065   1.50910
 1503  N   1.55068   1.37513   1.18534   1.44525
 1504  H   0.64439
 1505  C   1.07867   0.96575   0.86325   1.12906
 1506  H   0.81499
 1507  C   1.05975   0.97979   0.99671   1.07645
 1508  H   0.84630
 1509  C   1.05206   1.15828   1.06259   1.17606
 1510  H   0.84453
 1511  H   0.84456
 1512  H   0.84167
 1513  C   1.04784   1.00000   1.12975   1.08490
 1514  H   0.86687
 1515  H   0.85351
 1516  C   1.04903   1.11597   1.12947   1.14955
 1517  H   0.85875
 1518  H   0.85760
 1519  H   0.84100
 1520  C   1.07241   0.85958   0.73799   0.75024
 1521  O   1.87627   1.57602   1.55604   1.67377
 1522  N   1.54217   1.18498   1.41740   1.37463
 1523  H   0.66202
 1524  C   1.07135   0.87894   1.16328   1.10827
 1525  H   0.84313
 1526  H   0.83223
 1527  H   0.83421
 1528  H   0.82782
 1529  C   1.10747   0.84816   0.73350   0.82110
 1530  O   1.88535   1.81624   1.62636   1.36672
 1531  N   1.53777   1.25354   1.40289   1.30516
 1532  H   0.64806
 1533  C   1.05921   0.89132   1.04120   1.02468
 1534  H   0.81869
 1535  C   1.06063   1.03217   1.11519   1.11378
 1536  H   0.82506
 1537  H   0.84756
 1538  C   1.04446   0.99020   0.96280   1.06057
 1539  H   0.87911
 1540  C   1.05441   1.16186   1.06829   1.18047
 1541  H   0.83948
 1542  H   0.84807
 1543  H   0.85365
 1544  C   1.05255   1.12380   1.17258   1.10805
 1545  H   0.85769
 1546  H   0.84690
 1547  H   0.84175
 1548  C   1.07844   0.72943   0.86426   0.77466
 1549  O   1.88170   1.57753   1.45184   1.73581
 1550  N   1.54014   1.57147   1.21312   1.19389
 1551  H   0.66038
 1552  C   1.07171   1.02291   0.93439   0.96003
 1553  H   0.81200
 1554  C   1.05666   1.17030   1.07918   0.99322
 1555  H   0.82462
 1556  H   0.82709
 1557  C   1.05680   1.13000   1.08830   1.03620
 1558  H   0.85346
 1559  H   0.82375
 1560  C   1.06366   1.15808   0.94508   0.90237
 1561  H   0.81570
 1562  H   0.83649
 1563  N   1.52413   1.16127   1.42470   1.39832
 1564  H   0.63942
 1565  C   0.99156   0.79150   0.81258   0.81868
 1566  N   1.51747   1.11706   1.46807   1.48670
 1567  H   0.65506
 1568  H   0.63862
 1569  N   1.50862   1.25115   1.39999   1.41136
 1570  H   0.64172
 1571  H   0.64056
 1572  C   1.08218   0.87317   0.77455   0.74916
 1573  O   1.88865   1.60244   1.59406   1.51918
 1574  N   1.53988   1.17417   1.27246   1.51896
 1575  H   0.65856
 1576  C   1.07423   0.85791   1.08572   1.03670
 1577  H   0.81963
 1578  C   1.06129   1.16324   1.09761   0.98462
 1579  H   0.84264
 1580  H   0.83933
 1581  C   1.04759   1.08166   0.95999   0.94829
 1582  H   0.86911
 1583  C   1.05591   1.17157   1.16283   1.07796
 1584  H   0.85415
 1585  H   0.86088
 1586  H   0.84743
 1587  C   1.05670   1.15714   1.09322   1.15812
 1588  H   0.84864
 1589  H   0.86088
 1590  H   0.84872
 1591  C   1.08329   0.71407   0.76140   0.70261
 1592  O   1.88390   1.46811   1.86963   1.62366
 1593  O   1.88750   1.54796   1.59500   1.80385

 **********************
 *                    *
 * JOB ENDED NORMALLY *
 *                    *
 **********************



 TOTAL JOB TIME:          2983.94 SECONDS

 == MOPAC DONE ==
