 *******************************************************************************
 **                                                                           **
 **                              MOPAC v23.2.2                                **
 **                                                                           **
 *******************************************************************************
 **          Digital Object Identifier (DOI): 10.5281/zenodo.6511958          **
 **    Visit the DOI location for information on how to cite this program.    **
 *******************************************************************************

                              PM7 CALCULATION RESULTS

 *******************************************************************************
 *  CALCULATION DONE: (MAX THREADS = 24)             Thu Jan 22 23:45:38 2026  *
 *  PM7        - The PM7 Hamiltonian to be used
 *
 *
 *
 *                 CHARGE ON SYSTEM = +2
 *
 *
 *
 *  EPS=78.4   - USE ANDREAS KLAMT'S COSMO IMPLICIT SOLVATION MODEL
 *  XYZ        - CARTESIAN COORDINATE SYSTEM TO BE USED
 *  1SCF       - DO 1 SCF AND THEN STOP 
 *  T=         - A TIME OF 172800.0 SECONDS REQUESTED
 *  DUMP=N     - RESTART FILE WRITTEN EVERY 7200.0 SECONDS REQUESTED
 *******************************************************************************
PM7 1SCF XYZ CHARGE=2 EPS=78.4


   ATOM   CHEMICAL          X               Y               Z
  NUMBER   SYMBOL      (ANGSTROMS)     (ANGSTROMS)     (ANGSTROMS)

     1       H         71.69100000  *  165.23700000  * -45.36000000  *
     2       C         70.72700000  *  165.64400000  * -45.02500000  *
     3       O         70.67100000  *  166.69300000  * -44.40000000  *
     4       N         69.64800000  *  164.94600000  * -45.35400000  *
     5       H         69.74300000  *  164.08600000  * -45.86500000  *
     6       C         68.31800000  *  165.37700000  * -44.95100000  *
     7       H         68.30400000  *  166.44500000  * -44.75000000  *
     8       C         67.27900000  *  165.08100000  * -46.05800000  *
     9       H         67.27200000  *  164.02200000  * -46.29800000  *
    10       C         65.89200000  *  165.46600000  * -45.59200000  *
    11       H         65.46400000  *  166.22900000  * -46.24500000  *
    12       H         65.23700000  *  164.60600000  * -45.62700000  *
    13       H         65.87600000  *  165.89500000  * -44.58400000  *
    14       C         67.63700000  *  165.85600000  * -47.31700000  *
    15       H         68.59400000  *  165.52900000  * -47.70800000  *
    16       H         66.87900000  *  165.66900000  * -48.07700000  *
    17       H         67.68800000  *  166.92100000  * -47.10100000  *
    18       C         67.91500000  *  164.66400000  * -43.65700000  *
    19       O         67.55300000  *  165.30600000  * -42.67600000  *
    20       N         67.98400000  *  163.33800000  * -43.65800000  *
    21       H         68.28400000  *  162.85200000  * -44.48600000  *
    22       C         67.62300000  *  162.54400000  * -42.48700000  *
    23       H         67.90600000  *  163.07600000  * -41.58100000  *
    24       C         66.12800000  *  162.23500000  * -42.45900000  *
    25       H         65.92600000  *  161.47400000  * -43.20900000  *
    26       H         65.88500000  *  161.80700000  * -41.48800000  *
    27       C         65.21300000  *  163.39800000  * -42.74000000  *
    28       H         65.33100000  *  164.15700000  * -41.96400000  *
    29       H         65.45900000  *  163.81400000  * -43.69700000  *
    30       C         63.76600000  *  162.97200000  * -42.82400000  *
    31       O         63.44700000  *  162.11400000  * -43.67900000  *
    32       O         62.94800000  *  163.49400000  * -42.03400000  *
    33       C         68.34700000  *  161.22200000  * -42.57700000  *
    34       O         68.73000000  *  160.78800000  * -43.66100000  *
    35       N         68.52400000  *  160.57500000  * -41.43500000  *
    36       H         68.03000000  *  160.89100000  * -40.60600000  *
    37       C         69.17300000  *  159.28200000  * -41.42100000  *
    38       H         69.95100000  *  159.22100000  * -42.17800000  *
    39       C         69.75600000  *  159.01000000  * -40.03200000  *
    40       H         70.21900000  *  159.94300000  * -39.71800000  *
    41       H         68.96300000  *  158.79100000  * -39.31600000  *
    42       C         70.79800000  *  157.89600000  * -39.98300000  *
    43       H         70.31100000  *  156.94100000  * -40.17400000  *
    44       H         71.53800000  *  158.07300000  * -40.76900000  *
    45       C         71.50100000  *  157.83200000  * -38.61800000  *
    46       H         70.74900000  *  157.59000000  * -37.86000000  *
    47       H         72.23100000  *  157.01800000  * -38.63800000  *
    48       C         72.18600000  *  159.16200000  * -38.26900000  *
    49       H         72.83200000  *  159.42500000  * -39.10900000  *
    50       H         71.41200000  *  159.93100000  * -38.15600000  *
    51       N         73.00000000  *  159.10500000  * -37.02500000  *
    52       H         73.70000000  *  158.37000000  * -37.07400000  *
    53       H         73.43800000  *  159.98800000  * -36.79300000  *
    54       H         72.39100000  *  158.85400000  * -36.25100000  *
    55       C         68.06200000  *  158.28700000  * -41.74800000  *
    56       O         67.16300000  *  158.08100000  * -40.94600000  *
    57       N         68.04600000  *  157.72500000  * -42.96200000  *
    58       H         68.85400000  *  157.86700000  * -43.54900000  *
    59       C         67.02600000  *  156.74800000  * -43.40000000  *
    60       H         66.05300000  *  157.24100000  * -43.40700000  *
    61       C         67.31300000  *  156.22900000  * -44.83000000  *
    62       H         68.38900000  *  156.10900000  * -44.94900000  *
    63       C         66.65200000  *  154.87300000  * -45.12200000  *
    64       H         65.57800000  *  154.93300000  * -44.93900000  *
    65       H         66.82200000  *  154.60000000  * -46.15400000  *
    66       H         67.08600000  *  154.08000000  * -44.51200000  *
    67       C         66.81200000  *  157.26600000  * -45.84700000  *
    68       H         65.72100000  *  157.25800000  * -45.87500000  *
    69       H         67.12600000  *  158.24300000  * -45.49500000  *
    70       C         67.35400000  *  157.06900000  * -47.27100000  *
    71       H         66.95600000  *  156.16000000  * -47.71300000  *
    72       H         67.05600000  *  157.90900000  * -47.89500000  *
    73       H         68.43900000  *  157.01100000  * -47.25500000  *
    74       C         66.91500000  *  155.59200000  * -42.40800000  *
    75       O         65.81700000  *  155.24000000  * -41.97200000  *
    76       N         68.05700000  *  154.99600000  * -42.06900000  *
    77       H         68.93200000  *  155.34300000  * -42.44500000  *
    78       C         68.09400000  *  153.82100000  * -41.21900000  *
    79       H         67.62900000  *  154.05900000  * -40.26200000  *
    80       H         67.52500000  *  153.01800000  * -41.69200000  *
    81       C         69.49900000  *  153.31200000  * -40.95400000  *
    82       O         70.49700000  *  153.76400000  * -41.52300000  *
    83       N         69.54300000  *  152.33800000  * -40.05900000  *
    84       H         68.66700000  *  152.00500000  * -39.68200000  *
    85       C         70.76000000  *  151.75100000  * -39.52300000  *
    86       H         71.59900000  *  152.42400000  * -39.70200000  *
    87       C         70.57900000  *  151.59900000  * -38.00400000  *
    88       H         69.74000000  *  150.93400000  * -37.79900000  *
    89       H         71.48700000  *  151.16900000  * -37.60300000  *
    90       C         70.35300000  *  152.95300000  * -37.30400000  *
    91       H         71.19200000  *  153.61200000  * -37.54100000  *
    92       H         69.44600000  *  153.42300000  * -37.69200000  *
    93       C         70.21100000  *  152.81000000  * -35.78100000  *
    94       O         69.32200000  *  152.06100000  * -35.31300000  *
    95       O         70.95500000  *  153.49000000  * -35.03700000  *
    96       C         71.02500000  *  150.43500000  * -40.27000000  *
    97       O         70.32600000  *  149.43800000  * -40.07000000  *
    98       N         71.93800000  *  150.48000000  * -41.24500000  *
    99       H         72.53700000  *  151.29300000  * -41.31900000  *
   100       C         72.01000000  *  149.50200000  * -42.33500000  *
   101       H         70.99800000  *  149.21400000  * -42.62300000  *
   102       H         72.47100000  *  149.98800000  * -43.19400000  *
   103       C         72.79900000  *  148.22400000  * -42.03500000  *
   104       O         73.28000000  *  147.98800000  * -40.92900000  *
   105       N         72.96600000  *  147.40100000  * -43.07300000  *
   106       H         72.51300000  *  147.63100000  * -43.94700000  *
   107       C         73.76100000  *  146.15700000  * -43.05700000  *
   108       H         73.42800000  *  145.53800000  * -42.22300000  *
   109       C         73.55200000  *  145.35800000  * -44.35500000  *
   110       H         74.30500000  *  144.57200000  * -44.43000000  *
   111       C         72.17200000  *  144.71100000  * -44.37300000  *
   112       H         71.39300000  *  145.47300000  * -44.39700000  *
   113       H         72.08600000  *  144.06800000  * -45.24900000  *
   114       H         72.06400000  *  144.08800000  * -43.48600000  *
   115       O         73.66000000  *  146.21900000  * -45.46400000  *
   116       H         73.28600000  *  145.74100000  * -46.24100000  *
   117       C         75.25900000  *  146.38100000  * -42.86000000  *
   118       O         75.86700000  *  145.62700000  * -42.11000000  *
   119       N         75.84000000  *  147.40500000  * -43.50100000  *
   120       H         75.25300000  *  147.91300000  * -44.14200000  *
   121       C         77.29400000  *  147.66800000  * -43.54300000  *
   122       H         77.78400000  *  147.09100000  * -42.75900000  *
   123       C         77.86500000  *  147.19600000  * -44.89600000  *
   124       H         77.53000000  *  147.88500000  * -45.67100000  *
   125       H         78.95400000  *  147.25100000  * -44.85800000  *
   126       C         77.49600000  *  145.78300000  * -45.30100000  *
   127       C         77.76000000  *  144.71600000  * -44.42400000  *
   128       H         78.23300000  *  144.89900000  * -43.46800000  *
   129       C         77.38700000  *  143.41000000  * -44.77800000  *
   130       H         77.57100000  *  142.59800000  * -44.09400000  *
   131       C         76.77900000  *  143.15900000  * -46.02600000  *
   132       O         76.49600000  *  141.88200000  * -46.38500000  *
   133       H         77.10500000  *  141.28800000  * -45.91600000  *
   134       C         76.51300000  *  144.22800000  * -46.90500000  *
   135       H         76.03300000  *  144.04300000  * -47.85000000  *
   136       C         76.87800000  *  145.53800000  * -46.54300000  *
   137       H         76.68300000  *  146.35300000  * -47.22500000  *
   138       C         77.68000000  *  149.13900000  * -43.29500000  *
   139       O         78.78900000  *  149.55200000  * -43.63400000  *
   140       N         76.77900000  *  149.94700000  * -42.73000000  *
   141       H         75.89600000  *  149.56200000  * -42.42700000  *
   142       C         76.99900000  *  151.37600000  * -42.48600000  *
   143       H         77.58600000  *  151.50400000  * -41.57800000  *
   144       H         77.56800000  *  151.78800000  * -43.30900000  *
   145       C         75.69500000  *  152.16200000  * -42.33500000  *
   146       O         74.63600000  *  151.56500000  * -42.12000000  *
   147       N         75.75500000  *  153.49500000  * -42.44900000  *
   148       H         76.58800000  *  153.89400000  * -42.85900000  *
   149       C         74.59200000  *  154.32600000  * -42.21200000  *
   150       H         73.82600000  *  153.78000000  * -41.65800000  *
   151       C         74.95900000  *  155.54800000  * -41.37000000  *
   152       H         75.70700000  *  156.13900000  * -41.89300000  *
   153       C         73.73100000  *  156.40900000  * -41.13300000  *
   154       H         72.94300000  *  155.80300000  * -40.68200000  *
   155       H         73.98600000  *  157.21200000  * -40.45000000  *
   156       H         73.36800000  *  156.84900000  * -42.06500000  *
   157       C         75.54500000  *  155.09600000  * -40.05300000  *
   158       H         76.46000000  *  154.52800000  * -40.19800000  *
   159       H         75.77700000  *  155.95300000  * -39.42300000  *
   160       H         74.80500000  *  154.48400000  * -39.53200000  *
   161       C         74.01900000  *  154.79200000  * -43.53700000  *
   162       O         74.76100000  *  155.18400000  * -44.43700000  *
   163       N         72.69800000  *  154.64800000  * -43.68100000  *
   164       H         72.16300000  *  154.31300000  * -42.88600000  *
   165       C         71.92700000  *  155.09900000  * -44.84500000  *
   166       H         72.59800000  *  155.17300000  * -45.69800000  *
   167       C         70.79700000  *  154.11200000  * -45.21800000  *
   168       H         69.95600000  *  154.24800000  * -44.53700000  *
   169       C         70.31700000  *  154.39200000  * -46.64700000  *
   170       H         71.12300000  *  154.21400000  * -47.35900000  *
   171       H         69.47800000  *  153.73800000  * -46.89100000  *
   172       H         69.98800000  *  155.42500000  * -46.74100000  *
   173       C         71.22000000  *  152.64000000  * -45.13200000  *
   174       H         72.13200000  *  152.48300000  * -45.70100000  *
   175       H         71.38700000  *  152.36200000  * -44.09100000  *
   176       H         70.42700000  *  152.00300000  * -45.52900000  *
   177       C         71.34400000  *  156.47900000  * -44.55000000  *
   178       O         70.60000000  *  156.62200000  * -43.57600000  *
   179       N         71.62500000  *  157.49000000  * -45.37400000  *
   180       H         72.23900000  *  157.32200000  * -46.16900000  *
   181       C         71.01800000  *  158.79600000  * -45.21900000  *
   182       H         70.37900000  *  158.84300000  * -44.33800000  *
   183       C         72.10000000  *  159.86100000  * -45.06900000  *
   184       H         72.79900000  *  159.78100000  * -45.90500000  *
   185       H         71.63400000  *  160.84400000  * -45.14300000  *
   186       C         72.87100000  *  159.84300000  * -43.76800000  *
   187       C         72.34700000  *  160.43100000  * -42.61900000  *
   188       H         71.37700000  *  160.90600000  * -42.66800000  *
   189       C         73.06400000  *  160.45200000  * -41.42500000  *
   190       H         72.63300000  *  160.94600000  * -40.56800000  *
   191       C         74.33000000  *  159.87400000  * -41.37100000  *
   192       O         75.04700000  *  159.90100000  * -40.18700000  *
   193       H         74.69700000  *  160.54100000  * -39.56800000  *
   194       C         74.87500000  *  159.27800000  * -42.50300000  *
   195       H         75.78500000  *  158.71900000  * -42.41900000  *
   196       C         74.14000000  *  159.26700000  * -43.69600000  *
   197       H         74.51800000  *  158.73300000  * -44.56500000  *
   198       C         70.16700000  *  159.17400000  * -46.42900000  *
   199       O         70.41800000  *  158.72400000  * -47.55600000  *
   200       N         69.03000000  *  159.83400000  * -46.21200000  *
   201       H         68.84200000  *  160.14000000  * -45.26400000  *
   202       C         68.29500000  *  160.51300000  * -47.28100000  *
   203       H         68.28500000  *  159.91100000  * -48.19200000  *
   204       C         66.85100000  *  160.84200000  * -46.84800000  *
   205       H         66.33000000  *  159.92200000  * -46.59400000  *
   206       H         66.86900000  *  161.47700000  * -45.96100000  *
   207       C         66.04500000  *  161.53700000  * -47.95800000  *
   208       H         66.52100000  *  162.48100000  * -48.22700000  *
   209       H         66.02000000  *  160.89200000  * -48.83800000  *
   210       C         64.60900000  *  161.81500000  * -47.48400000  *
   211       H         64.15000000  *  160.88100000  * -47.15500000  *
   212       H         64.64100000  *  162.50400000  * -46.64000000  *
   213       C         63.77100000  *  162.42000000  * -48.61800000  *
   214       H         64.29600000  *  163.29500000  * -49.01500000  *
   215       H         63.69300000  *  161.67900000  * -49.42200000  *
   216       N         62.41400000  *  162.81500000  * -48.15400000  *
   217       H         62.46200000  *  163.52000000  * -47.43200000  *
   218       H         61.86700000  *  163.20400000  * -48.91100000  *
   219       H         61.90400000  *  162.02800000  * -47.78000000  *
   220       C         69.10400000  *  161.76600000  * -47.50900000  *
   221       O         69.33700000  *  162.49900000  * -46.55100000  *
   222       N         69.55500000  *  162.00600000  * -48.72500000  *
   223       H         69.34400000  *  161.34200000  * -49.46700000  *
   224       C         70.34900000  *  163.18200000  * -49.01700000  *
   225       H         70.22500000  *  163.93500000  * -48.24000000  *
   226       C         71.81400000  *  162.79200000  * -49.07000000  *
   227       H         71.97800000  *  162.06700000  * -49.86400000  *
   228       H         72.42900000  *  163.67700000  * -49.23900000  *
   229       H         72.10500000  *  162.33200000  * -48.12600000  *
   230       C         69.94400000  *  163.83800000  * -50.32200000  *
   231       O         69.22100000  *  163.25100000  * -51.12800000  *
   232       N         70.40700000  *  165.06400000  * -50.52400000  *
   233       H         70.93200000  *  165.53000000  * -49.79600000  *
   234       C         70.10800000  *  165.77900000  * -51.74600000  *
   235       H         69.54100000  *  165.15900000  * -52.44400000  *
   236       H         69.52200000  *  166.69100000  * -51.53000000  *
   237       H         71.05900000  *  166.04700000  * -52.23900000  *
   238       H         68.08600000  *  164.80700000  * -56.55000000  *
   239       C         68.21200000  *  164.39600000  * -55.53600000  *
   240       O         69.28600000  *  164.50800000  * -54.94200000  *
   241       N         67.13500000  *  163.82300000  * -55.01100000  *
   242       H         66.34000000  *  163.66800000  * -55.61500000  *
   243       C         67.13600000  *  163.21200000  * -53.68800000  *
   244       H         67.86300000  *  163.70700000  * -53.05000000  *
   245       C         65.75500000  *  163.32300000  * -53.02900000  *
   246       H         64.97700000  *  163.06900000  * -53.75000000  *
   247       C         65.64800000  *  162.36600000  * -51.85200000  *
   248       H         66.47200000  *  162.51800000  * -51.15200000  *
   249       H         64.69700000  *  162.53800000  * -51.34700000  *
   250       H         65.65200000  *  161.33900000  * -52.20000000  *
   251       C         65.54000000  *  164.75000000  * -52.56600000  *
   252       H         65.62600000  *  165.42400000  * -53.41600000  *
   253       H         64.53500000  *  164.85100000  * -52.15900000  *
   254       H         66.28400000  *  165.00300000  * -51.81000000  *
   255       C         67.52600000  *  161.76000000  * -53.84700000  *
   256       O         66.97900000  *  161.02800000  * -54.68200000  *
   257       N         68.49600000  *  161.34900000  * -53.04800000  *
   258       H         68.91100000  *  161.99700000  * -52.39100000  *
   259       C         69.01100000  *  159.99200000  * -53.10200000  *
   260       H         68.34600000  *  159.34100000  * -53.67900000  *
   261       C         70.37400000  *  159.97400000  * -53.81600000  *
   262       H         70.77500000  *  158.96500000  * -53.87500000  *
   263       C         70.21400000  *  160.50700000  * -55.21300000  *
   264       H         69.95700000  *  161.56600000  * -55.19000000  *
   265       H         71.15100000  *  160.39100000  * -55.75600000  *
   266       H         69.44200000  *  159.95000000  * -55.73600000  *
   267       C         71.37900000  *  160.85000000  * -53.05700000  *
   268       H         71.56500000  *  160.44500000  * -52.06400000  *
   269       H         72.31500000  *  160.84900000  * -53.61300000  *
   270       H         71.03600000  *  161.88400000  * -52.98400000  *
   271       C         69.19200000  *  159.37200000  * -51.72900000  *
   272       O         69.02000000  *  160.03600000  * -50.68600000  *
   273       N         69.37800000  *  158.05800000  * -51.70200000  *
   274       H         69.45300000  *  157.56300000  * -52.58700000  *
   275       C         69.76000000  *  157.32500000  * -50.51100000  *
   276       H         69.48300000  *  157.89100000  * -49.62200000  *
   277       C         69.00800000  *  156.00300000  * -50.46400000  *
   278       H         69.22500000  *  155.43000000  * -51.36200000  *
   279       H         69.31400000  *  155.43100000  * -49.58700000  *
   280       H         67.94000000  *  156.20300000  * -50.40500000  *
   281       C         71.27700000  *  157.14900000  * -50.54300000  *
   282       O         71.81100000  *  156.47800000  * -51.43200000  *
   283       N         71.97000000  *  157.79100000  * -49.60300000  *
   284       H         71.44500000  *  158.28300000  * -48.88900000  *
   285       C         73.41300000  *  157.73400000  * -49.53500000  *
   286       H         73.80300000  *  157.43200000  * -50.50200000  *
   287       C         73.96100000  *  159.11400000  * -49.18200000  *
   288       H         73.49200000  *  159.84000000  * -49.85100000  *
   289       H         73.62800000  *  159.35800000  * -48.16900000  *
   290       C         75.47300000  *  159.31600000  * -49.26600000  *
   291       H         75.96900000  *  158.63700000  * -48.57100000  *
   292       C         75.94900000  *  159.02000000  * -50.68400000  *
   293       H         75.44100000  *  159.71800000  * -51.34800000  *
   294       H         77.02400000  *  159.18800000  * -50.76300000  *
   295       H         75.74700000  *  157.98700000  * -50.96800000  *
   296       C         75.80400000  *  160.74000000  * -48.87900000  *
   297       H         75.43700000  *  160.94600000  * -47.87600000  *
   298       H         76.88200000  *  160.87900000  * -48.92200000  *
   299       H         75.32000000  *  161.42900000  * -49.57600000  *
   300       C         73.82100000  *  156.71600000  * -48.48500000  *
   301       O         73.39600000  *  156.78100000  * -47.33400000  *
   302       N         74.63000000  *  155.73800000  * -48.89000000  *
   303       H         74.86400000  *  155.71400000  * -49.88100000  *
   304       C         75.13400000  *  154.63200000  * -48.06200000  *
   305       H         74.61100000  *  154.60700000  * -47.10500000  *
   306       C         74.88900000  *  153.31200000  * -48.83100000  *
   307       H         74.37700000  *  153.53400000  * -49.76900000  *
   308       H         75.83900000  *  152.84400000  * -49.09200000  *
   309       C         74.03600000  *  152.26300000  * -48.11800000  *
   310       H         73.10500000  *  152.72100000  * -47.78500000  *
   311       H         73.78900000  *  151.51200000  * -48.86800000  *
   312       C         74.74300000  *  151.57700000  * -46.93600000  *
   313       H         75.79700000  *  151.41500000  * -47.16600000  *
   314       H         74.68800000  *  152.23700000  * -46.06600000  *
   315       C         74.07100000  *  150.23000000  * -46.60200000  *
   316       H         74.35700000  *  149.94500000  * -45.58400000  *
   317       H         72.98500000  *  150.38300000  * -46.59900000  *
   318       N         74.44800000  *  149.14800000  * -47.56700000  *
   319       H         75.40800000  *  148.84600000  * -47.45000000  *
   320       H         73.84100000  *  148.31800000  * -47.48000000  *
   321       H         74.33700000  *  149.44300000  * -48.53000000  *
   322       C         76.62300000  *  154.86200000  * -47.80000000  *
   323       O         77.41500000  *  154.71400000  * -48.72100000  *
   324       N         77.01700000  *  155.22600000  * -46.58100000  *
   325       H         76.29800000  *  155.26800000  * -45.86500000  *
   326       C         78.42200000  *  155.28900000  * -46.15900000  *
   327       H         79.06600000  *  155.59300000  * -46.98900000  *
   328       C         78.56700000  *  156.26000000  * -44.97900000  *
   329       H         78.02700000  *  155.87500000  * -44.10900000  *
   330       H         79.62500000  *  156.33900000  * -44.73000000  *
   331       C         78.01500000  *  157.64300000  * -45.34000000  *
   332       H         78.45100000  *  157.95800000  * -46.27300000  *
   333       H         76.93600000  *  157.57500000  * -45.50000000  *
   334       C         78.25100000  *  158.72500000  * -44.27900000  *
   335       H         77.97800000  *  159.68000000  * -44.73200000  *
   336       H         77.56000000  *  158.53300000  * -43.46900000  *
   337       C         79.67700000  *  158.85000000  * -43.70900000  *
   338       H         80.38400000  *  158.36300000  * -44.39700000  *
   339       H         79.95000000  *  159.91100000  * -43.68600000  *
   340       N         79.78800000  *  158.26900000  * -42.33500000  *
   341       H         79.63700000  *  157.26100000  * -42.37000000  *
   342       H         80.69600000  *  158.42600000  * -41.93200000  *
   343       H         79.10400000  *  158.64600000  * -41.70100000  *
   344       C         78.82300000  *  153.89100000  * -45.72900000  *
   345       O         78.09100000  *  153.31500000  * -44.93700000  *
   346       N         79.90700000  *  153.32000000  * -46.24700000  *
   347       H         80.40500000  *  153.76400000  * -47.01000000  *
   348       C         80.34300000  *  152.02200000  * -45.76800000  *
   349       H         79.49500000  *  151.49800000  * -45.35900000  *
   350       C         80.94400000  *  151.18600000  * -46.89500000  *
   351       H         81.78600000  *  151.78200000  * -47.16900000  *
   352       C         81.42400000  *  149.85200000  * -46.34500000  *
   353       H         80.65600000  *  149.35200000  * -45.75200000  *
   354       H         81.67900000  *  149.19900000  * -47.17900000  *
   355       H         82.34500000  *  149.95700000  * -45.76100000  *
   356       C         79.89700000  *  150.97600000  * -47.99700000  *
   357       H         79.60200000  *  151.87000000  * -48.50000000  *
   358       H         80.28300000  *  150.30500000  * -48.75000000  *
   359       C         78.59100000  *  150.36100000  * -47.52600000  *
   360       H         78.17700000  *  150.90100000  * -46.69000000  *
   361       H         77.89400000  *  150.33700000  * -48.36300000  *
   362       H         78.77100000  *  149.33300000  * -47.20900000  *
   363       C         81.33300000  *  152.07100000  * -44.61400000  *
   364       O         82.16700000  *  152.98000000  * -44.51900000  *
   365       N         81.21100000  *  151.07100000  * -43.74300000  *
   366       H         80.50300000  *  150.36100000  * -43.92800000  *
   367       C         82.04400000  *  150.90200000  * -42.55200000  *
   368       H         81.47500000  *  151.18100000  * -41.66300000  *
   369       H         82.35800000  *  149.86100000  * -42.45900000  *
   370       H         82.94700000  *  151.51400000  * -42.62000000  *
   371       H         81.25700000  *  144.04600000  * -57.89900000  *
   372       C         80.50000000  *  144.84100000  * -57.88800000  *
   373       O         79.71500000  *  144.99000000  * -58.82400000  *
   374       N         80.49900000  *  145.60300000  * -56.79700000  *
   375       H         81.28000000  *  145.52500000  * -56.16600000  *
   376       C         79.57000000  *  146.70600000  * -56.61200000  *
   377       H         78.57500000  *  146.34400000  * -56.42300000  *
   378       C         80.00500000  *  147.61000000  * -55.44200000  *
   379       H         80.89800000  *  148.18000000  * -55.68500000  *
   380       C         78.90600000  *  148.60800000  * -55.12500000  *
   381       H         77.92000000  *  148.14100000  * -55.17600000  *
   382       H         79.04500000  *  148.98700000  * -54.11600000  *
   383       H         78.93800000  *  149.43600000  * -55.83300000  *
   384       C         80.32100000  *  146.76200000  * -54.20900000  *
   385       H         81.19200000  *  146.13400000  * -54.40600000  *
   386       H         80.59400000  *  147.42200000  * -53.38900000  *
   387       C         79.18400000  *  145.87900000  * -53.76500000  *
   388       H         78.77800000  *  145.31100000  * -54.59400000  *
   389       H         79.50900000  *  145.12200000  * -53.06500000  *
   390       H         78.38800000  *  146.48300000  * -53.33500000  *
   391       C         79.54300000  *  147.54500000  * -57.87900000  *
   392       O         78.48200000  *  147.77900000  * -58.45100000  *
   393       N         80.72300000  *  147.98900000  * -58.30900000  *
   394       H         81.55800000  *  147.70100000  * -57.81200000  *
   395       C         80.85900000  *  148.80400000  * -59.51100000  *
   396       H         80.33900000  *  149.74600000  * -59.38600000  *
   397       H         81.92800000  *  148.98500000  * -59.72900000  *
   398       H         80.37800000  *  148.32200000  * -60.38100000  *
   399       H         78.96400000  *  146.08700000  * -61.65600000  *
   400       C         77.87300000  *  146.08700000  * -61.51600000  *
   401       O         77.11500000  *  145.89500000  * -62.46400000  *
   402       N         77.44600000  *  146.31800000  * -60.28000000  *
   403       H         78.13400000  *  146.42500000  * -59.54900000  *
   404       C         76.02800000  *  146.35200000  * -59.94500000  *
   405       H         75.53300000  *  145.47600000  * -60.35900000  *
   406       C         75.84100000  *  146.37400000  * -58.43100000  *
   407       H         76.20500000  *  147.30400000  * -58.01800000  *
   408       H         74.76300000  *  146.35700000  * -58.24200000  *
   409       C         76.47200000  *  145.22200000  * -57.65900000  *
   410       H         77.55000000  *  145.23900000  * -57.74900000  *
   411       C         76.08000000  *  145.34100000  * -56.19200000  *
   412       H         74.99900000  *  145.23000000  * -56.07700000  *
   413       H         76.57300000  *  144.55300000  * -55.62900000  *
   414       H         76.38500000  *  146.30900000  * -55.80100000  *
   415       C         75.99600000  *  143.89000000  * -58.23600000  *
   416       H         76.41500000  *  143.73000000  * -59.22900000  *
   417       H         76.32800000  *  143.07800000  * -57.59100000  *
   418       H         74.90500000  *  143.87400000  * -58.30500000  *
   419       C         75.32200000  *  147.55900000  * -60.54800000  *
   420       O         74.09500000  *  147.56800000  * -60.66200000  *
   421       N         76.08400000  *  148.63100000  * -60.82900000  *
   422       H         77.08200000  *  148.53500000  * -60.67700000  *
   423       C         75.60100000  *  149.83300000  * -61.53400000  *
   424       H         74.83700000  *  150.33500000  * -60.94100000  *
   425       H         76.43800000  *  150.53300000  * -61.75900000  *
   426       H         75.13800000  *  149.54900000  * -62.49200000  *
   427       H         62.79000000  *  145.77200000  * -59.27600000  *
   428       C         63.71000000  *  145.72000000  * -58.67500000  *
   429       O         63.77900000  *  145.02200000  * -57.66400000  *
   430       N         64.72400000  *  146.45200000  * -59.11400000  *
   431       H         64.63800000  *  147.05100000  * -59.92700000  *
   432       C         65.97100000  *  146.53500000  * -58.38100000  *
   433       H         65.88400000  *  146.09200000  * -57.38600000  *
   434       C         67.11600000  *  145.87700000  * -59.11400000  *
   435       H         67.33600000  *  146.42600000  * -60.03000000  *
   436       C         68.35100000  *  145.87800000  * -58.21400000  *
   437       H         68.14700000  *  145.31400000  * -57.31800000  *
   438       H         69.21000000  *  145.44500000  * -58.72400000  *
   439       H         68.64100000  *  146.89000000  * -57.94500000  *
   440       C         66.72800000  *  144.44400000  * -59.47800000  *
   441       H         66.54900000  *  143.87300000  * -58.56400000  *
   442       H         65.81500000  *  144.42400000  * -60.06800000  *
   443       C         67.77400000  *  143.72700000  * -60.29600000  *
   444       H         68.68300000  *  143.57700000  * -59.72200000  *
   445       H         67.37700000  *  142.75300000  * -60.59800000  *
   446       H         68.02300000  *  144.31300000  * -61.18000000  *
   447       C         66.29500000  *  148.01000000  * -58.22000000  *
   448       O         66.21200000  *  148.78000000  * -59.18400000  *
   449       N         66.54600000  *  148.44000000  * -56.98100000  *
   450       H         66.61400000  *  147.75800000  * -56.23000000  *
   451       C         66.89100000  *  149.83500000  * -56.68500000  *
   452       H         66.07600000  *  150.48300000  * -57.01000000  *
   453       C         67.10700000  *  150.04100000  * -55.18000000  *
   454       H         67.90000000  *  149.37500000  * -54.83600000  *
   455       C         67.50400000  *  151.48100000  * -54.84700000  *
   456       H         66.68800000  *  152.16800000  * -55.07200000  *
   457       H         67.74400000  *  151.53000000  * -53.78900000  *
   458       H         68.38600000  *  151.78300000  * -55.40600000  *
   459       C         65.83100000  *  149.73300000  * -54.39500000  *
   460       H         65.54900000  *  148.69000000  * -54.50600000  *
   461       H         66.01900000  *  149.92200000  * -53.34400000  *
   462       H         65.01500000  *  150.36400000  * -54.74100000  *
   463       C         68.15000000  *  150.20900000  * -57.46200000  *
   464       O         69.17500000  *  149.53200000  * -57.35000000  *
   465       N         68.08000000  *  151.28300000  * -58.25100000  *
   466       H         67.22500000  *  151.80400000  * -58.24500000  *
   467       C         69.18900000  *  151.69800000  * -59.08000000  *
   468       H         69.52500000  *  150.81900000  * -59.63900000  *
   469       C         68.73700000  *  152.76800000  * -60.08300000  *
   470       H         67.83400000  *  152.41100000  * -60.57900000  *
   471       H         68.47700000  *  153.68100000  * -59.53700000  *
   472       C         69.79100000  *  153.06900000  * -61.13100000  *
   473       H         70.72100000  *  153.35000000  * -60.64200000  *
   474       H         69.97400000  *  152.16800000  * -61.71600000  *
   475       C         69.35100000  *  154.17900000  * -62.08100000  *
   476       H         68.50200000  *  153.81400000  * -62.66100000  *
   477       H         69.02300000  *  155.05600000  * -61.52200000  *
   478       C         70.49800000  *  154.55900000  * -63.02400000  *
   479       H         71.33900000  *  154.89000000  * -62.40800000  *
   480       H         70.81900000  *  153.66100000  * -63.56600000  *
   481       N         70.11800000  *  155.62600000  * -63.99700000  *
   482       H         69.74700000  *  156.41600000  * -63.48300000  *
   483       H         70.92600000  *  155.93300000  * -64.52500000  *
   484       H         69.41500000  *  155.27800000  * -64.63600000  *
   485       C         70.36000000  *  152.21400000  * -58.25300000  *
   486       O         70.19400000  *  153.07400000  * -57.38700000  *
   487       N         71.53700000  *  151.64500000  * -58.50700000  *
   488       H         71.59600000  *  150.90400000  * -59.18600000  *
   489       C         72.75000000  *  152.07400000  * -57.83600000  *
   490       H         72.53800000  *  152.52600000  * -56.87100000  *
   491       C         73.72700000  *  150.91100000  * -57.67000000  *
   492       H         73.31500000  *  150.22100000  * -56.93700000  *
   493       H         73.77900000  *  150.36900000  * -58.62000000  *
   494       C         75.16700000  *  151.27300000  * -57.28800000  *
   495       H         75.65500000  *  151.80300000  * -58.10000000  *
   496       C         75.18300000  *  152.16500000  * -56.05900000  *
   497       H         74.60800000  *  151.72100000  * -55.25200000  *
   498       H         76.21000000  *  152.29600000  * -55.73500000  *
   499       H         74.78900000  *  153.14000000  * -56.31200000  *
   500       C         75.93300000  *  149.99400000  * -57.01300000  *
   501       H         75.98300000  *  149.42100000  * -57.93300000  *
   502       H         76.94600000  *  150.24200000  * -56.71200000  *
   503       H         75.43500000  *  149.41000000  * -56.23200000  *
   504       C         73.31900000  *  153.11300000  * -58.79500000  *
   505       O         73.76900000  *  152.77900000  * -59.89700000  *
   506       N         73.26700000  *  154.36900000  * -58.37800000  *
   507       H         72.92600000  *  154.57000000  * -57.44900000  *
   508       C         73.73400000  *  155.46600000  * -59.19700000  *
   509       H         73.47500000  *  155.26500000  * -60.23600000  *
   510       C         73.02500000  *  156.74200000  * -58.76000000  *
   511       H         73.45000000  *  157.06300000  * -57.80900000  *
   512       H         73.23600000  *  157.53300000  * -59.48700000  *
   513       C         71.51300000  *  156.60300000  * -58.58700000  *
   514       H         71.27400000  *  155.80900000  * -57.88500000  *
   515       C         70.97400000  *  157.88000000  * -58.01900000  *
   516       H         71.37000000  *  158.74600000  * -58.56000000  *
   517       H         69.88800000  *  157.89100000  * -58.09300000  *
   518       H         71.22100000  *  157.96000000  * -56.96600000  *
   519       C         70.85100000  *  156.29000000  * -59.92300000  *
   520       H         71.28300000  *  155.39700000  * -60.34200000  *
   521       H         69.78900000  *  156.14400000  * -59.75100000  *
   522       H         71.00300000  *  157.12700000  * -60.60700000  *
   523       C         75.24500000  *  155.67800000  * -59.15800000  *
   524       O         75.83900000  *  156.04700000  * -60.17600000  *
   525       N         75.86200000  *  155.44600000  * -57.99600000  *
   526       H         75.29500000  *  155.17900000  * -57.20400000  *
   527       C         77.30800000  *  155.64700000  * -57.82900000  *
   528       H         77.80800000  *  155.40400000  * -58.76600000  *
   529       C         77.60000000  *  157.11700000  * -57.51900000  *
   530       H         76.91700000  *  157.54400000  * -56.80300000  *
   531       H         78.58200000  *  157.17000000  * -57.04800000  *
   532       C         77.65600000  *  157.97500000  * -58.75600000  *
   533       O         78.67800000  *  157.91700000  * -59.48300000  *
   534       O         76.67400000  *  158.70400000  * -59.00000000  *
   535       C         77.97900000  *  154.81700000  * -56.73400000  *
   536       O         77.37100000  *  154.52100000  * -55.70400000  *
   537       N         79.24700000  *  154.47700000  * -56.96600000  *
   538       H         79.69800000  *  154.82400000  * -57.79800000  *
   539       C         80.06100000  *  153.73800000  * -56.00300000  *
   540       H         79.55400000  *  153.69900000  * -55.05200000  *
   541       C         80.36600000  *  152.29800000  * -56.50400000  *
   542       H         79.42700000  *  151.75200000  * -56.56200000  *
   543       C         80.98100000  *  152.34300000  * -57.88400000  *
   544       H         82.06600000  *  152.43300000  * -57.82100000  *
   545       H         80.74600000  *  151.41400000  * -58.37900000  *
   546       H         80.59600000  *  153.14500000  * -58.51000000  *
   547       C         81.29900000  *  151.58800000  * -55.53900000  *
   548       H         80.81100000  *  151.54900000  * -54.57200000  *
   549       H         81.47300000  *  150.57200000  * -55.87800000  *
   550       H         82.25900000  *  152.09200000  * -55.44900000  *
   551       C         81.36500000  *  154.53600000  * -55.81000000  *
   552       O         82.27000000  *  154.48900000  * -56.64700000  *
   553       N         81.45200000  *  155.28200000  * -54.71000000  *
   554       H         80.67600000  *  155.30400000  * -54.06400000  *
   555       C         82.62100000  *  156.11100000  * -54.44300000  *
   556       H         83.20500000  *  156.21800000  * -55.35800000  *
   557       H         82.32200000  *  157.12800000  * -54.14500000  *
   558       H         83.29700000  *  155.73900000  * -53.65600000  *
   559       H         84.58000000  *  155.17100000  * -47.07300000  *
   560       C         84.22500000  *  154.98400000  * -48.09100000  *
   561       O         84.63900000  *  155.65900000  * -49.04200000  *
   562       N         83.35800000  *  153.99100000  * -48.22200000  *
   563       H         83.13600000  *  153.42800000  * -47.41700000  *
   564       C         82.77600000  *  153.65100000  * -49.50600000  *
   565       H         83.37000000  *  154.04700000  * -50.31700000  *
   566       C         82.71900000  *  152.14000000  * -49.66000000  *
   567       H         83.74000000  *  151.87500000  * -49.95700000  *
   568       H         82.64400000  *  151.54600000  * -48.78400000  *
   569       C         81.82600000  *  151.61900000  * -50.77900000  *
   570       H         80.79100000  *  151.88400000  * -50.58700000  *
   571       C         82.25800000  *  152.23100000  * -52.09200000  *
   572       H         83.31100000  *  152.49100000  * -52.08900000  *
   573       H         82.09300000  *  151.51300000  * -52.88400000  *
   574       H         81.65400000  *  153.10900000  * -52.31200000  *
   575       C         81.89900000  *  150.09400000  * -50.82200000  *
   576       H         81.91300000  *  149.66400000  * -49.82700000  *
   577       H         81.05200000  *  149.70600000  * -51.39100000  *
   578       H         82.82500000  *  149.80300000  * -51.32100000  *
   579       C         81.36700000  *  154.23200000  * -49.54800000  *
   580       O         80.51800000  *  153.85700000  * -48.74500000  *
   581       N         81.13100000  *  155.16100000  * -50.46700000  *
   582       H         81.84500000  *  155.34800000  * -51.16200000  *
   583       C         79.82200000  *  155.78100000  * -50.60800000  *
   584       H         79.27400000  *  155.67000000  * -49.68700000  *
   585       C         79.96700000  *  157.27800000  * -50.86800000  *
   586       H         80.42300000  *  157.50400000  * -51.79700000  *
   587       H         78.95400000  *  157.66400000  * -50.98900000  *
   588       C         80.57600000  *  158.04300000  * -49.72300000  *
   589       C         79.79300000  *  158.48000000  * -48.65600000  *
   590       H         78.73500000  *  158.25400000  * -48.66900000  *
   591       C         80.35600000  *  159.18600000  * -47.59400000  *
   592       H         79.75300000  *  159.56200000  * -46.79700000  *
   593       C         81.71600000  *  159.45200000  * -47.58700000  *
   594       O         82.27600000  *  160.12500000  * -46.52100000  *
   595       H         83.20600000  *  160.30800000  * -46.74500000  *
   596       C         82.51400000  *  159.02600000  * -48.63700000  *
   597       H         83.58200000  *  159.23300000  * -48.65000000  *
   598       C         81.94100000  *  158.32800000  * -49.69800000  *
   599       H         82.57400000  *  157.98100000  * -50.50200000  *
   600       C         79.04800000  *  155.15800000  * -51.76500000  *
   601       O         79.54400000  *  155.08000000  * -52.88800000  *
   602       N         77.86200000  *  154.62300000  * -51.49600000  *
   603       H         77.53400000  *  154.65000000  * -50.53600000  *
   604       C         76.98200000  *  154.05400000  * -52.51400000  *
   605       H         77.50700000  *  154.00500000  * -53.46200000  *
   606       C         76.55200000  *  152.62100000  * -52.16000000  *
   607       H         75.86800000  *  152.66200000  * -51.32000000  *
   608       H         76.00200000  *  152.21900000  * -53.01200000  *
   609       C         77.69000000  *  151.65000000  * -51.80500000  *
   610       H         78.19900000  *  151.98800000  * -50.90300000  *
   611       C         77.12300000  *  150.25500000  * -51.54600000  *
   612       H         76.64100000  *  149.87100000  * -52.44700000  *
   613       H         77.92800000  *  149.57700000  * -51.25700000  *
   614       H         76.39500000  *  150.29700000  * -50.73800000  *
   615       C         78.70200000  *  151.53900000  * -52.93800000  *
   616       H         79.22000000  *  152.48700000  * -53.05800000  *
   617       H         79.43900000  *  150.77700000  * -52.69500000  *
   618       H         78.19500000  *  151.28200000  * -53.86900000  *
   619       C         75.78400000  *  154.98200000  * -52.67300000  *
   620       O         75.09800000  *  155.25300000  * -51.68400000  *
   621       N         75.54700000  *  155.50800000  * -53.87800000  *
   622       H         76.14500000  *  155.25500000  * -54.66000000  *
   623       C         74.40900000  *  156.37500000  * -54.09400000  *
   624       H         73.97600000  *  156.70200000  * -53.15000000  *
   625       C         74.83400000  *  157.63700000  * -54.81800000  *
   626       H         75.25500000  *  157.34500000  * -55.76600000  *
   627       C         73.61400000  *  158.52200000  * -55.10900000  *
   628       H         73.11700000  *  158.76900000  * -54.17500000  *
   629       H         73.94100000  *  159.43100000  * -55.61500000  *
   630       H         72.91600000  *  158.00900000  * -55.76200000  *
   631       C         75.84000000  *  158.38200000  * -53.94900000  *
   632       H         75.28100000  *  158.78400000  * -53.13000000  *
   633       H         76.65600000  *  157.75800000  * -53.60500000  *
   634       H         76.26100000  *  159.20400000  * -54.52500000  *
   635       C         73.31400000  *  155.64400000  * -54.85300000  *
   636       O         73.49500000  *  155.22100000  * -55.99400000  *
   637       N         72.19500000  *  155.40900000  * -54.17200000  *
   638       H         72.12400000  *  155.76500000  * -53.22200000  *
   639       C         71.01300000  *  154.74500000  * -54.71500000  *
   640       H         71.26700000  *  154.27500000  * -55.66100000  *
   641       C         70.54500000  *  153.65500000  * -53.74600000  *
   642       H         70.37700000  *  154.10200000  * -52.76700000  *
   643       H         69.58500000  *  153.28000000  * -54.09300000  *
   644       C         71.48800000  *  152.47700000  * -53.58900000  *
   645       C         71.39200000  *  151.37600000  * -54.46300000  *
   646       H         70.67200000  *  151.38200000  * -55.26700000  *
   647       C         72.22600000  *  150.25700000  * -54.28600000  *
   648       H         72.14200000  *  149.40900000  * -54.95300000  *
   649       C         73.16300000  *  150.23700000  * -53.24000000  *
   650       H         73.80300000  *  149.37600000  * -53.10300000  *
   651       C         73.26600000  *  151.33800000  * -52.37200000  *
   652       H         73.97800000  *  151.31600000  * -51.56200000  *
   653       C         72.43400000  *  152.45900000  * -52.54700000  *
   654       H         72.51300000  *  153.30100000  * -51.87100000  *
   655       C         69.88500000  *  155.75300000  * -54.96400000  *
   656       O         69.73300000  *  156.71800000  * -54.21400000  *
   657       N         69.07500000  *  155.53900000  * -56.00500000  *
   658       H         69.23800000  *  154.71600000  * -56.57600000  *
   659       C         67.81800000  *  156.28800000  * -56.18100000  *
   660       H         68.06800000  *  157.33500000  * -56.35600000  *
   661       C         67.05000000  *  155.77500000  * -57.41300000  *
   662       H         66.20100000  *  156.43900000  * -57.57700000  *
   663       H         67.70300000  *  155.82900000  * -58.28500000  *
   664       C         66.53400000  *  154.33400000  * -57.26100000  *
   665       H         67.38400000  *  153.67200000  * -57.09000000  *
   666       H         65.87900000  *  154.27400000  * -56.39500000  *
   667       C         65.72200000  *  153.82500000  * -58.45400000  *
   668       O         65.25200000  *  154.63000000  * -59.29100000  *
   669       O         65.50700000  *  152.59400000  * -58.51600000  *
   670       C         66.95200000  *  156.21200000  * -54.90600000  *
   671       O         66.83600000  *  155.14600000  * -54.30400000  *
   672       N         66.34900000  *  157.31500000  * -54.46000000  *
   673       H         66.42100000  *  158.17600000  * -54.98200000  *
   674       C         65.49600000  *  157.29200000  * -53.26600000  *
   675       H         65.98300000  *  156.68100000  * -52.50300000  *
   676       C         65.36800000  *  158.70600000  * -52.69700000  *
   677       H         66.36300000  *  159.07500000  * -52.45700000  *
   678       H         64.94300000  *  159.35700000  * -53.46200000  *
   679       C         64.52000000  *  158.79700000  * -51.44200000  *
   680       C         63.20800000  *  159.30200000  * -51.50800000  *
   681       H         62.79700000  *  159.62700000  * -52.45400000  *
   682       C         62.42500000  *  159.38600000  * -50.34400000  *
   683       H         61.41800000  *  159.77400000  * -50.40000000  *
   684       C         62.95100000  *  158.96200000  * -49.11100000  *
   685       H         62.34700000  *  159.02500000  * -48.21500000  *
   686       C         64.26200000  *  158.45800000  * -49.04200000  *
   687       H         64.66500000  *  158.13700000  * -48.09200000  *
   688       C         65.04600000  *  158.37500000  * -50.20700000  *
   689       H         66.05400000  *  157.98900000  * -50.15200000  *
   690       C         64.11600000  *  156.67400000  * -53.54900000  *
   691       O         63.45800000  *  157.03600000  * -54.52800000  *
   692       N         63.65600000  *  155.79400000  * -52.65500000  *
   693       H         64.27200000  *  155.52700000  * -51.89600000  *
   694       C         62.26300000  *  155.33900000  * -52.56500000  *
   695       H         61.65700000  *  155.86300000  * -53.30600000  *
   696       C         62.15100000  *  153.82700000  * -52.83100000  *
   697       H         62.89300000  *  153.29900000  * -52.23300000  *
   698       H         61.16500000  *  153.51000000  * -52.48800000  *
   699       C         62.29100000  *  153.44200000  * -54.31700000  *
   700       H         61.92100000  *  154.25500000  * -54.94200000  *
   701       C         63.74200000  *  153.13700000  * -54.68900000  *
   702       H         64.13200000  *  152.35000000  * -54.04800000  *
   703       H         63.80500000  *  152.83300000  * -55.73200000  *
   704       H         64.35000000  *  154.02900000  * -54.55800000  *
   705       C         61.45800000  *  152.19600000  * -54.63200000  *
   706       H         60.41500000  *  152.36900000  * -54.36500000  *
   707       H         61.50400000  *  151.98400000  * -55.69900000  *
   708       H         61.83100000  *  151.33700000  * -54.07700000  *
   709       C         61.69100000  *  155.69800000  * -51.18800000  *
   710       O         62.41000000  *  155.72500000  * -50.19300000  *
   711       N         60.40300000  *  156.03000000  * -51.13700000  *
   712       H         59.87600000  *  156.02000000  * -52.00200000  *
   713       C         59.78700000  *  156.72100000  * -49.99900000  *
   714       H         60.46400000  *  157.51700000  * -49.68600000  *
   715       C         58.49300000  *  157.39300000  * -50.47700000  *
   716       H         57.74400000  *  156.62200000  * -50.66500000  *
   717       H         58.12900000  *  158.04100000  * -49.68200000  *
   718       C         58.64500000  *  158.21700000  * -51.73500000  *
   719       N         58.69900000  *  157.70600000  * -53.03700000  *
   720       C         58.86200000  *  158.76900000  * -53.84400000  *
   721       H         58.93700000  *  158.72400000  * -54.92500000  *
   722       N         58.91700000  *  159.90000000  * -53.12000000  *
   723       H         59.03200000  *  160.83300000  * -53.50400000  *
   724       C         58.78600000  *  159.57200000  * -51.78800000  *
   725       H         58.79200000  *  160.25100000  * -50.94500000  *
   726       C         59.53800000  *  155.86300000  * -48.74300000  *
   727       O         59.41300000  *  156.42400000  * -47.65400000  *
   728       N         59.46300000  *  154.53200000  * -48.86600000  *
   729       H         59.59100000  *  154.12800000  * -49.78400000  *
   730       C         59.09600000  *  153.61500000  * -47.77300000  *
   731       H         59.55300000  *  153.97200000  * -46.85000000  *
   732       C         57.56200000  *  153.65100000  * -47.59400000  *
   733       H         57.27500000  *  154.66700000  * -47.32000000  *
   734       H         57.07600000  *  153.40800000  * -48.54100000  *
   735       C         57.04300000  *  152.69100000  * -46.51300000  *
   736       H         56.91600000  *  151.70000000  * -46.94500000  *
   737       H         57.77500000  *  152.62600000  * -45.70900000  *
   738       C         55.72900000  *  153.15100000  * -45.89500000  *
   739       O         55.69300000  *  153.87000000  * -44.91000000  *
   740       N         54.59500000  *  152.75800000  * -46.43600000  *
   741       H         53.74700000  *  153.08200000  * -45.99700000  *
   742       H         54.59500000  *  152.19400000  * -47.26700000  *
   743       C         59.61300000  *  152.18300000  * -48.01300000  *
   744       O         59.69000000  *  151.73300000  * -49.15800000  *
   745       N         59.95000000  *  151.45800000  * -46.93900000  *
   746       H         59.85000000  *  151.88600000  * -46.01900000  *
   747       C         60.27800000  *  150.02400000  * -47.00200000  *
   748       H         60.57400000  *  149.79900000  * -48.02300000  *
   749       C         61.50500000  *  149.69500000  * -46.13100000  *
   750       H         61.83300000  *  148.68700000  * -46.38800000  *
   751       H         62.31400000  *  150.37500000  * -46.40200000  *
   752       C         61.28200000  *  149.75100000  * -44.61600000  *
   753       O         60.31200000  *  149.13500000  * -44.12600000  *
   754       O         62.13000000  *  150.35700000  * -43.92100000  *
   755       C         59.07300000  *  149.10800000  * -46.70200000  *
   756       O         58.04000000  *  149.54000000  * -46.17400000  *
   757       N         59.19100000  *  147.81900000  * -47.04800000  *
   758       H         60.03800000  *  147.50900000  * -47.52500000  *
   759       C         58.10100000  *  146.88000000  * -46.84100000  *
   760       H         57.21800000  *  147.32500000  * -47.29300000  *
   761       C         58.41200000  *  145.57700000  * -47.59200000  *
   762       H         58.61300000  *  145.80400000  * -48.64400000  *
   763       H         59.28800000  *  145.12100000  * -47.15800000  *
   764       C         57.28700000  *  144.52700000  * -47.51900000  *
   765       H         57.05600000  *  144.28000000  * -46.48700000  *
   766       C         56.00700000  *  145.04400000  * -48.19600000  *
   767       H         56.23500000  *  145.37800000  * -49.20200000  *
   768       H         55.26800000  *  144.24500000  * -48.23100000  *
   769       H         55.59500000  *  145.87000000  * -47.62900000  *
   770       C         57.76800000  *  143.24900000  * -48.17500000  *
   771       H         58.61500000  *  142.85400000  * -47.62000000  *
   772       H         56.97300000  *  142.50400000  * -48.17100000  *
   773       H         58.06400000  *  143.44500000  * -49.20700000  *
   774       C         57.76400000  *  146.61300000  * -45.36900000  *
   775       O         56.60900000  *  146.37600000  * -45.03000000  *
   776       N         58.75700000  *  146.67700000  * -44.48800000  *
   777       H         59.64000000  *  147.08600000  * -44.79000000  *
   778       C         58.49100000  *  146.46700000  * -43.07300000  *
   779       H         57.97900000  *  145.55100000  * -42.87200000  *
   780       C         59.78200000  *  146.47800000  * -42.25400000  *
   781       H         60.44800000  *  145.70000000  * -42.62000000  *
   782       H         60.28600000  *  147.44000000  * -42.35600000  *
   783       C         59.49200000  *  146.22900000  * -40.76500000  *
   784       H         58.94200000  *  147.08300000  * -40.37400000  *
   785       H         58.87100000  *  145.33200000  * -40.67600000  *
   786       C         60.74500000  *  146.03800000  * -39.93500000  *
   787       H         61.36100000  *  145.25900000  * -40.37900000  *
   788       H         61.30800000  *  146.97100000  * -39.90700000  *
   789       C         60.37600000  *  145.60700000  * -38.51700000  *
   790       H         59.98500000  *  144.58900000  * -38.53700000  *
   791       H         61.27900000  *  145.61300000  * -37.90300000  *
   792       N         59.34600000  *  146.53100000  * -37.94700000  *
   793       H         58.44600000  *  146.48100000  * -38.44300000  *
   794       H         59.09000000  *  146.27800000  * -37.00400000  *
   795       H         59.61300000  *  147.50600000  * -37.97800000  *
   796       C         57.55800000  *  147.53800000  * -42.51200000  *
   797       O         56.61300000  *  147.23400000  * -41.78300000  *
   798       N         57.83600000  *  148.81500000  * -42.79800000  *
   799       H         58.66500000  *  149.01200000  * -43.36500000  *
   800       C         56.99700000  *  149.92400000  * -42.32300000  *
   801       H         56.88300000  *  149.83000000  * -41.24100000  *
   802       C         57.66200000  *  151.27800000  * -42.61300000  *
   803       H         58.66100000  *  151.28000000  * -42.17500000  *
   804       H         57.75200000  *  151.42000000  * -43.69100000  *
   805       C         56.84200000  *  152.42800000  * -42.00100000  *
   806       H         55.87800000  *  152.49000000  * -42.50600000  *
   807       H         56.66600000  *  152.21700000  * -40.94500000  *
   808       C         57.54700000  *  153.78500000  * -42.11500000  *
   809       H         58.47200000  *  153.75600000  * -41.53700000  *
   810       H         57.77900000  *  153.98800000  * -43.16200000  *
   811       C         56.62500000  *  154.88000000  * -41.56300000  *
   812       H         55.70600000  *  154.89600000  * -42.15800000  *
   813       H         56.35100000  *  154.61900000  * -40.53600000  *
   814       N         57.26900000  *  156.21800000  * -41.58600000  *
   815       H         57.50500000  *  156.49700000  * -42.52700000  *
   816       H         56.65300000  *  156.92200000  * -41.20600000  *
   817       H         58.11500000  *  156.22700000  * -41.03500000  *
   818       C         55.59700000  *  149.82000000  * -42.91900000  *
   819       O         54.61400000  *  150.04600000  * -42.21900000  *
   820       N         55.49500000  *  149.42600000  * -44.18900000  *
   821       H         56.35000000  *  149.26300000  * -44.71300000  *
   822       C         54.20500000  *  149.26000000  * -44.85200000  *
   823       H         53.62600000  *  150.17500000  * -44.72500000  *
   824       C         54.41000000  *  148.98800000  * -46.34000000  *
   825       H         54.98900000  *  149.80200000  * -46.77700000  *
   826       H         55.00200000  *  148.07700000  * -46.45200000  *
   827       C         53.12600000  *  148.85300000  * -47.10800000  *
   828       C         52.23100000  *  149.92200000  * -47.18600000  *
   829       H         52.46300000  *  150.85600000  * -46.69900000  *
   830       C         51.01500000  *  149.79500000  * -47.88400000  *
   831       H         50.32500000  *  150.62800000  * -47.91800000  *
   832       C         50.69700000  *  148.60300000  * -48.50200000  *
   833       H         49.75200000  *  148.50200000  * -49.02000000  *
   834       C         51.58700000  *  147.52100000  * -48.43200000  *
   835       H         51.33500000  *  146.58300000  * -48.91200000  *
   836       C         52.79500000  *  147.65400000  * -47.73300000  *
   837       H         53.46700000  *  146.81000000  * -47.67200000  *
   838       C         53.37400000  *  148.12200000  * -44.22700000  *
   839       O         52.16900000  *  148.28300000  * -44.00900000  *
   840       N         54.01600000  *  146.98100000  * -43.96600000  *
   841       H         55.00900000  *  146.90600000  * -44.17900000  *
   842       C         53.33800000  *  145.83600000  * -43.34100000  *
   843       H         52.47600000  *  145.52800000  * -43.93400000  *
   844       C         54.29200000  *  144.65000000  * -43.17000000  *
   845       H         55.15800000  *  145.02700000  * -42.63600000  *
   846       H         53.80700000  *  143.89200000  * -42.54700000  *
   847       C         54.73100000  *  144.00400000  * -44.46100000  *
   848       H         53.84700000  *  143.61400000  * -44.95900000  *
   849       H         55.19200000  *  144.69400000  * -45.15000000  *
   850       S         55.79700000  *  142.58100000  * -44.15400000  *
   851       C         57.05400000  *  143.29200000  * -43.18800000  *
   852       H         56.67800000  *  143.65800000  * -42.23500000  *
   853       H         57.80700000  *  142.53400000  * -42.98200000  *
   854       H         57.44300000  *  144.07900000  * -43.80900000  *
   855       C         52.84400000  *  146.26000000  * -41.95900000  *
   856       O         51.68200000  *  146.03200000  * -41.61400000  *
   857       N         53.72600000  *  146.88400000  * -41.17900000  *
   858       H         54.70100000  *  146.95700000  * -41.45300000  *
   859       C         53.34300000  *  147.35100000  * -39.84600000  *
   860       H         53.03400000  *  146.49700000  * -39.23800000  *
   861       C         54.50500000  *  148.07700000  * -39.15700000  *
   862       H         54.94100000  *  148.81500000  * -39.83000000  *
   863       H         54.12400000  *  148.60600000  * -38.28400000  *
   864       C         55.58400000  *  147.11500000  * -38.68500000  *
   865       O         55.26200000  *  145.90900000  * -38.57600000  *
   866       O         56.73300000  *  147.55200000  * -38.41700000  *
   867       C         52.15000000  *  148.27900000  * -39.96300000  *
   868       O         51.20300000  *  148.18000000  * -39.18700000  *
   869       N         52.18300000  *  149.16200000  * -40.95500000  *
   870       H         53.01600000  *  149.23700000  * -41.51800000  *
   871       C         51.08600000  *  150.10000000  * -41.17300000  *
   872       H         50.93100000  *  150.67400000  * -40.25800000  *
   873       C         51.42800000  *  151.06800000  * -42.31500000  *
   874       H         51.45500000  *  150.53900000  * -43.26600000  *
   875       H         50.66000000  *  151.83800000  * -42.36800000  *
   876       H         52.39300000  *  151.53600000  * -42.12800000  *
   877       C         49.78900000  *  149.37000000  * -41.49900000  *
   878       O         48.71100000  *  149.83600000  * -41.15600000  *
   879       N         49.90500000  *  148.22900000  * -42.16400000  *
   880       H         50.83800000  *  147.88500000  * -42.38200000  *
   881       C         48.74000000  *  147.45400000  * -42.57500000  *
   882       H         47.85700000  *  148.08600000  * -42.62800000  *
   883       H         48.90600000  *  147.02300000  * -43.58600000  *
   884       H         48.52600000  *  146.61900000  * -41.88800000  *
   885       H         72.54500000  *  137.05800000  * -55.15200000  *
   886       C         72.38600000  *  137.90500000  * -54.47400000  *
   887       O         73.28300000  *  138.71900000  * -54.28600000  *
   888       N         71.20100000  *  138.01500000  * -53.89800000  *
   889       H         70.47300000  *  137.31400000  * -54.05700000  *
   890       C         70.96800000  *  139.10000000  * -52.94900000  *
   891       H         71.50000000  *  140.00600000  * -53.22900000  *
   892       C         69.47700000  *  139.40500000  * -52.82500000  *
   893       H         69.09300000  *  139.71900000  * -53.79200000  *
   894       H         68.93000000  *  138.50600000  * -52.53300000  *
   895       C         69.17800000  *  140.45400000  * -51.81200000  *
   896       N         69.23000000  *  140.42300000  * -50.45900000  *
   897       C         68.94700000  *  141.69100000  * -50.01400000  *
   898       H         68.96900000  *  142.01200000  * -48.98400000  *
   899       N         68.72400000  *  142.47200000  * -51.05500000  *
   900       H         68.47200000  *  143.44500000  * -51.00700000  *
   901       C         68.85400000  *  141.75000000  * -52.15500000  *
   902       H         68.77100000  *  142.12600000  * -53.16500000  *
   903       C         71.52100000  *  138.65700000  * -51.58300000  *
   904       O         72.28000000  *  139.38000000  * -50.94700000  *
   905       N         71.11400000  *  137.47100000  * -51.14500000  *
   906       H         70.37100000  *  137.01600000  * -51.66500000  *
   907       C         71.55500000  *  136.88000000  * -49.87700000  *
   908       H         71.18200000  *  135.84900000  * -49.87900000  *
   909       C         73.07600000  *  136.85300000  * -49.83700000  *
   910       H         73.53100000  *  137.83300000  * -49.86900000  *
   911       H         73.36600000  *  136.47900000  * -48.85100000  *
   912       C         73.64700000  *  135.85900000  * -50.81700000  *
   913       H         73.29800000  *  134.87100000  * -50.67200000  *
   914       H         73.21600000  *  136.10500000  * -51.78700000  *
   915       C         75.11700000  *  136.08400000  * -50.99900000  *
   916       H         75.61200000  *  135.95400000  * -50.03300000  *
   917       H         75.49500000  *  135.33200000  * -51.69500000  *
   918       N         75.35800000  *  137.42700000  * -51.50600000  *
   919       H         74.62100000  *  138.12700000  * -51.38200000  *
   920       C         76.54800000  *  137.85900000  * -51.89000000  *
   921       N         77.59300000  *  137.04400000  * -51.81500000  *
   922       H         77.44700000  *  136.21200000  * -51.26800000  *
   923       H         78.49900000  *  137.44300000  * -51.92100000  *
   924       N         76.69000000  *  139.09300000  * -52.35600000  *
   925       H         75.86000000  *  139.69200000  * -52.33800000  *
   926       H         77.56200000  *  139.47800000  * -52.67100000  *
   927       C         71.03700000  *  137.42400000  * -48.54200000  *
   928       O         71.18700000  *  136.76800000  * -47.50900000  *
   929       N         70.43700000  *  138.60400000  * -48.51600000  *
   930       H         70.32800000  *  139.16900000  * -49.34700000  *
   931       C         69.93700000  *  139.07600000  * -47.23100000  *
   932       H         69.76500000  *  138.24900000  * -46.54100000  *
   933       C         70.93500000  *  140.04200000  * -46.56200000  *
   934       H         71.90900000  *  139.56600000  * -46.50900000  *
   935       H         71.04400000  *  140.94300000  * -47.17900000  *
   936       C         70.51300000  *  140.42800000  * -45.14700000  *
   937       O         70.17200000  *  139.51500000  * -44.35500000  *
   938       O         70.51000000  *  141.64400000  * -44.82500000  *
   939       C         68.58700000  *  139.73400000  * -47.37800000  *
   940       O         68.35000000  *  140.81000000  * -46.83500000  *
   941       N         67.68700000  *  139.08300000  * -48.11000000  *
   942       H         67.94300000  *  138.20800000  * -48.54500000  *
   943       C         66.35900000  *  139.64900000  * -48.29900000  *
   944       H         66.47700000  *  140.66700000  * -48.65900000  *
   945       C         65.54600000  *  138.81300000  * -49.28800000  *
   946       H         65.58300000  *  137.78400000  * -48.94500000  *
   947       H         64.50600000  *  139.14000000  * -49.25500000  *
   948       C         66.02700000  *  138.85500000  * -50.73600000  *
   949       H         67.06400000  *  138.52800000  * -50.78200000  *
   950       C         65.17300000  *  137.91700000  * -51.58300000  *
   951       H         64.15900000  *  138.30500000  * -51.68800000  *
   952       H         65.63400000  *  137.80700000  * -52.55000000  *
   953       H         65.13400000  *  136.93500000  * -51.11000000  *
   954       C         65.92100000  *  140.27700000  * -51.26400000  *
   955       H         66.42000000  *  140.99600000  * -50.63300000  *
   956       H         66.44200000  *  140.27500000  * -52.20900000  *
   957       H         64.88200000  *  140.56100000  * -51.39700000  *
   958       C         65.59400000  *  139.73400000  * -46.98200000  *
   959       O         65.58600000  *  138.79200000  * -46.16600000  *
   960       N         64.95800000  *  140.85600000  * -46.74300000  *
   961       H         64.96900000  *  141.58900000  * -47.44100000  *
   962       C         64.16900000  *  141.06400000  * -45.54400000  *
   963       H         63.55800000  *  140.17300000  * -45.40400000  *
   964       C         65.04800000  *  141.23000000  * -44.28500000  *
   965       H         64.41200000  *  141.28700000  * -43.40100000  *
   966       H         65.65100000  *  140.33000000  * -44.17100000  *
   967       C         65.97700000  *  142.45100000  * -44.28700000  *
   968       H         66.38100000  *  142.60600000  * -45.28400000  *
   969       H         65.41900000  *  143.33600000  * -43.98400000  *
   970       C         67.14000000  *  142.19400000  * -43.32000000  *
   971       H         66.74800000  *  141.91400000  * -42.34000000  *
   972       H         67.72400000  *  141.35900000  * -43.71500000  *
   973       C         68.04000000  *  143.42300000  * -43.16900000  *
   974       H         68.13300000  *  143.92000000  * -44.14000000  *
   975       H         67.55900000  *  144.12600000  * -42.47900000  *
   976       N         69.38200000  *  143.02600000  * -42.66800000  *
   977       H         69.87100000  *  142.45300000  * -43.37000000  *
   978       H         69.94600000  *  143.83900000  * -42.45100000  *
   979       H         69.30100000  *  142.48100000  * -41.82000000  *
   980       C         63.26700000  *  142.23100000  * -45.83600000  *
   981       O         63.62800000  *  143.07600000  * -46.65500000  *
   982       N         62.11200000  *  142.30300000  * -45.18600000  *
   983       C         61.62600000  *  141.34600000  * -44.17100000  *
   984       H         62.10000000  *  141.53200000  * -43.20900000  *
   985       H         61.74500000  *  140.31100000  * -44.47600000  *
   986       C         60.16400000  *  141.66900000  * -44.09500000  *
   987       H         59.73700000  *  141.34900000  * -43.14300000  *
   988       H         59.63700000  *  141.20600000  * -44.93200000  *
   989       C         60.16000000  *  143.18900000  * -44.24800000  *
   990       H         60.51600000  *  143.64900000  * -43.32100000  *
   991       H         59.20200000  *  143.56500000  * -44.57400000  *
   992       C         61.14500000  *  143.38000000  * -45.40300000  *
   993       H         60.63400000  *  143.20500000  * -46.34500000  *
   994       C         61.77100000  *  144.77100000  * -45.44800000  *
   995       O         61.39200000  *  145.58400000  * -46.27300000  *
   996       N         62.72900000  *  145.08800000  * -44.55900000  *
   997       H         62.97200000  *  144.40000000  * -43.86200000  *
   998       C         63.44500000  *  146.38700000  * -44.53300000  *
   999       H         62.71200000  *  147.19100000  * -44.44100000  *
  1000       C         64.39600000  *  146.45500000  * -43.32400000  *
  1001       H         65.09100000  *  145.61700000  * -43.37100000  *
  1002       H         64.98000000  *  147.37400000  * -43.39900000  *
  1003       C         63.69600000  *  146.46500000  * -41.95900000  *
  1004       H         62.99200000  *  147.29800000  * -41.93100000  *
  1005       H         63.14500000  *  145.53700000  * -41.82200000  *
  1006       C         64.69700000  *  146.60300000  * -40.81000000  *
  1007       O         65.72200000  *  145.93600000  * -40.75900000  *
  1008       N         64.44500000  *  147.45600000  * -39.84100000  *
  1009       H         65.11600000  *  147.53700000  * -39.09100000  *
  1010       H         63.62900000  *  148.04800000  * -39.86900000  *
  1011       C         64.28500000  *  146.68000000  * -45.79500000  *
  1012       O         64.50300000  *  147.83800000  * -46.14400000  *
  1013       N         64.75900000  *  145.63400000  * -46.47600000  *
  1014       H         64.46000000  *  144.71500000  * -46.18500000  *
  1015       C         65.53700000  *  145.70000000  * -47.71400000  *
  1016       H         66.09800000  *  146.63600000  * -47.74800000  *
  1017       C         66.55300000  *  144.52700000  * -47.74100000  *
  1018       H         66.05000000  *  143.60000000  * -47.48000000  *
  1019       H         66.93300000  *  144.40500000  * -48.75300000  *
  1020       C         67.77600000  *  144.71000000  * -46.85100000  *
  1021       O         68.07800000  *  145.78600000  * -46.36000000  *
  1022       N         68.53200000  *  143.66200000  * -46.60100000  *
  1023       H         69.39500000  *  143.80300000  * -46.10200000  *
  1024       H         68.28400000  *  142.71700000  * -46.88000000  *
  1025       C         64.63300000  *  145.70200000  * -48.96600000  *
  1026       O         65.15500000  *  145.60000000  * -50.07500000  *
  1027       N         63.30000000  *  145.80300000  * -48.83400000  *
  1028       H         62.89500000  *  145.87300000  * -47.90900000  *
  1029       C         62.40600000  *  145.84500000  * -49.97900000  *
  1030       H         62.94700000  *  145.74800000  * -50.91900000  *
  1031       C         61.36900000  *  144.72100000  * -49.88900000  *
  1032       H         60.76900000  *  144.86100000  * -48.99200000  *
  1033       H         60.74400000  *  144.79800000  * -50.77200000  *
  1034       C         62.03600000  *  143.32400000  * -49.85900000  *
  1035       H         62.67100000  *  143.24000000  * -48.98800000  *
  1036       C         61.00200000  *  142.26000000  * -49.77100000  *
  1037       H         60.24600000  *  142.42800000  * -50.53400000  *
  1038       H         61.44700000  *  141.27100000  * -49.89000000  *
  1039       H         60.52000000  *  142.31900000  * -48.79800000  *
  1040       C         62.89500000  *  143.12600000  * -51.08400000  *
  1041       H         63.82900000  *  143.66800000  * -50.95600000  *
  1042       H         63.12900000  *  142.06900000  * -51.20900000  *
  1043       H         62.39300000  *  143.49200000  * -51.96600000  *
  1044       C         61.76300000  *  147.21800000  * -49.95200000  *
  1045       O         61.15000000  *  147.60200000  * -48.96600000  *
  1046       N         61.89200000  *  147.98400000  * -51.02800000  *
  1047       H         62.38600000  *  147.61400000  * -51.83400000  *
  1048       C         61.43500000  *  149.37300000  * -51.06600000  *
  1049       H         61.05100000  *  149.67700000  * -50.09300000  *
  1050       C         62.59100000  *  150.29500000  * -51.42500000  *
  1051       H         62.93300000  *  150.05000000  * -52.43200000  *
  1052       H         62.21000000  *  151.31500000  * -51.42000000  *
  1053       C         63.77800000  *  150.20200000  * -50.46700000  *
  1054       H         64.22800000  *  149.21300000  * -50.52800000  *
  1055       C         64.78800000  *  151.23600000  * -50.91900000  *
  1056       H         64.44000000  *  152.22800000  * -50.64500000  *
  1057       H         65.73900000  *  151.01700000  * -50.44900000  *
  1058       H         64.92200000  *  151.20600000  * -51.99500000  *
  1059       C         63.40100000  *  150.49000000  * -49.01500000  *
  1060       H         62.79300000  *  149.67400000  * -48.63700000  *
  1061       H         64.29300000  *  150.54700000  * -48.39800000  *
  1062       H         62.84500000  *  151.42500000  * -48.94200000  *
  1063       C         60.31200000  *  149.55000000  * -52.06200000  *
  1064       O         60.40200000  *  149.08300000  * -53.18400000  *
  1065       N         59.26800000  *  150.25600000  * -51.67700000  *
  1066       H         59.36500000  *  150.76300000  * -50.80000000  *
  1067       C         58.08300000  *  150.44700000  * -52.50800000  *
  1068       H         58.17300000  *  149.92400000  * -53.45700000  *
  1069       C         56.81900000  *  149.90600000  * -51.78600000  *
  1070       H         55.94300000  *  150.08700000  * -52.41500000  *
  1071       C         56.95000000  *  148.40400000  * -51.54300000  *
  1072       H         57.75300000  *  148.18300000  * -50.83300000  *
  1073       H         56.01300000  *  148.00400000  * -51.15200000  *
  1074       H         57.15800000  *  147.91500000  * -52.48900000  *
  1075       C         56.64700000  *  150.60600000  * -50.43300000  *
  1076       H         57.48200000  *  150.38000000  * -49.77500000  *
  1077       H         56.60500000  *  151.68300000  * -50.57600000  *
  1078       C         55.37000000  *  150.22200000  * -49.68600000  *
  1079       H         55.48900000  *  149.24800000  * -49.22200000  *
  1080       H         55.17000000  *  150.96500000  * -48.91000000  *
  1081       H         54.52900000  *  150.16800000  * -50.38500000  *
  1082       C         57.87200000  *  151.93000000  * -52.81700000  *
  1083       O         58.38200000  *  152.79400000  * -52.10000000  *
  1084       N         57.14900000  *  152.22000000  * -53.89700000  *
  1085       H         56.70500000  *  151.48200000  * -54.43300000  *
  1086       C         56.84100000  *  153.60200000  * -54.22700000  *
  1087       H         57.16800000  *  154.27800000  * -53.43100000  *
  1088       C         57.50400000  *  154.05300000  * -55.54100000  *
  1089       H         57.21800000  *  155.07000000  * -55.80500000  *
  1090       H         58.58200000  *  154.04400000  * -55.38800000  *
  1091       C         57.19300000  *  153.14600000  * -56.70100000  *
  1092       O         56.13500000  *  152.53500000  * -56.76400000  *
  1093       N         58.11500000  *  153.07200000  * -57.64100000  *
  1094       H         57.83300000  *  152.61700000  * -58.48600000  *
  1095       H         58.88600000  *  153.71500000  * -57.62100000  *
  1096       C         55.33100000  *  153.75800000  * -54.32100000  *
  1097       O         54.57600000  *  152.79900000  * -54.11400000  *
  1098       N         54.88500000  *  154.97100000  * -54.62100000  *
  1099       H         55.52100000  *  155.73600000  * -54.79200000  *
  1100       C         53.46400000  *  155.24700000  * -54.72300000  *
  1101       H         52.92700000  *  154.82600000  * -53.87200000  *
  1102       C         53.20900000  *  156.78000000  * -54.75500000  *
  1103       H         52.16900000  *  156.98000000  * -55.02600000  *
  1104       C         53.47800000  *  157.39700000  * -53.41000000  *
  1105       H         54.52100000  *  157.25500000  * -53.13000000  *
[...]
 1005  H   0.82965
 1006  C   1.06521   0.79678   0.73517   0.79741
 1007  O   1.87747   1.40478   1.58349   1.83001
 1008  N   1.52701   1.34572   1.41650   1.31019
 1009  H   0.65663
 1010  H   0.66405
 1011  C   1.08371   0.75656   0.78122   0.81420
 1012  O   1.88477   1.66122   1.30985   1.73620
 1013  N   1.55131   1.50660   1.20286   1.30206
 1014  H   0.66558
 1015  C   1.07295   0.94575   1.09517   0.82107
 1016  H   0.80302
 1017  C   1.07060   1.04969   1.09156   1.16382
 1018  H   0.83122
 1019  H   0.79551
 1020  C   1.05908   0.80385   0.76532   0.75726
 1021  O   1.87647   1.77129   1.40562   1.61457
 1022  N   1.53143   1.31613   1.19673   1.57955
 1023  H   0.66761
 1024  H   0.65471
 1025  C   1.08793   0.78527   0.71994   0.85266
 1026  O   1.87917   1.76778   1.60991   1.38015
 1027  N   1.54108   1.12602   1.66410   1.18362
 1028  H   0.65388
 1029  C   1.06991   0.96901   0.97988   0.97438
 1030  H   0.81109
 1031  C   1.06732   1.06438   0.99766   1.17289
 1032  H   0.83715
 1033  H   0.84801
 1034  C   1.04101   1.01195   0.94622   1.06219
 1035  H   0.85586
 1036  C   1.04922   1.12583   1.11843   1.17082
 1037  H   0.84482
 1038  H   0.84885
 1039  H   0.86564
 1040  C   1.05157   1.14156   1.17188   1.09915
 1041  H   0.84464
 1042  H   0.85753
 1043  H   0.84978
 1044  C   1.07645   0.75006   0.84278   0.75566
 1045  O   1.87198   1.53782   1.79684   1.44553
 1046  N   1.54567   1.55353   1.17320   1.24822
 1047  H   0.64578
 1048  C   1.06416   0.98870   0.82790   1.10070
 1049  H   0.81312
 1050  C   1.06426   1.02677   1.10548   1.12377
 1051  H   0.84615
 1052  H   0.84016
 1053  C   1.04762   0.97092   1.07093   0.96633
 1054  H   0.86600
 1055  C   1.05341   1.12722   1.12864   1.16497
 1056  H   0.84572
 1057  H   0.84901
 1058  H   0.85863
 1059  C   1.05441   1.17473   1.17548   1.04935
 1060  H   0.84126
 1061  H   0.85196
 1062  H   0.84693
 1063  C   1.07366   0.79913   0.74462   0.81744
 1064  O   1.86807   1.83037   1.62561   1.34366
 1065  N   1.54067   1.19425   1.46576   1.29632
 1066  H   0.64438
 1067  C   1.07613   0.88952   1.00746   1.04211
 1068  H   0.80949
 1069  C   1.06433   1.01536   0.99286   1.01959
 1070  H   0.85011
 1071  C   1.05464   1.18114   1.03415   1.17658
 1072  H   0.84344
 1073  H   0.84508
 1074  H   0.85311
 1075  C   1.05400   1.06954   1.12042   1.03138
 1076  H   0.84569
 1077  H   0.86077
 1078  C   1.05248   1.08964   1.15705   1.13169
 1079  H   0.84837
 1080  H   0.87851
 1081  H   0.84669
 1082  C   1.08606   0.74300   0.88733   0.74296
 1083  O   1.88682   1.56832   1.57624   1.55680
 1084  N   1.54288   1.50708   1.14426   1.33747
 1085  H   0.64364
 1086  C   1.06247   0.97198   0.88403   1.03795
 1087  H   0.80316
 1088  C   1.07246   1.18064   1.12767   1.02343
 1089  H   0.80932
 1090  H   0.80533
 1091  C   1.06100   0.76134   0.77042   0.82340
 1092  O   1.88008   1.35571   1.56937   1.83593
 1093  N   1.53425   1.29791   1.49520   1.27246
 1094  H   0.67174
 1095  H   0.66510
 1096  C   1.08286   0.88448   0.75909   0.71263
 1097  O   1.88770   1.65435   1.46882   1.58963
 1098  N   1.54006   1.14496   1.19763   1.67162
 1099  H   0.66290
 1100  C   1.08553   0.83750   1.05829   1.08223
 1101  H   0.80379
 1102  C   1.08424   0.99137   0.86675   0.88975
 1103  H   0.84691
 1104  C   1.05385   1.18436   1.18007   1.05460
 1105  H   0.84100
 1106  H   0.82441
 1107  H   0.82927
 1108  O   1.84886   1.59218   1.82288   1.34505
 1109  H   0.64280
 1110  C   1.07340   0.78888   0.75523   0.82417
 1111  O   1.87782   1.28011   1.68922   1.84896
 1112  N   1.53334   1.19354   1.53455   1.21097
 1113  H   0.66703
 1114  C   1.05708   1.15375   1.13341   0.89316
 1115  H   0.83542
 1116  H   0.83779
 1117  H   0.83544
 1118  H   0.83959
 1119  C   1.10507   0.75500   0.73544   0.91354
 1120  O   1.88313   1.71070   1.59668   1.48269
 1121  N   1.54488   1.42791   1.34576   1.20819
 1122  H   0.65357
 1123  C   1.08078   0.93082   1.08469   0.93147
 1124  H   0.80909
 1125  C   1.07313   1.07905   0.95370   0.98251
 1126  H   0.84405
 1127  C   1.05810   1.18713   1.08404   1.12931
 1128  H   0.84352
 1129  H   0.84844
 1130  H   0.85205
 1131  C   1.05415   1.07579   1.13467   1.01861
 1132  H   0.85366
 1133  H   0.85441
 1134  C   1.04918   1.14384   1.15093   1.09053
 1135  H   0.84998
 1136  H   0.85977
 1137  H   0.84950
 1138  C   1.07231   0.84170   0.73642   0.77755
 1139  O   1.87774   1.89044   1.52089   1.39077
 1140  N   1.54497   1.10270   1.52673   1.33577
 1141  H   0.63217
 1142  C   1.06985   0.84628   1.05348   1.03779
 1143  H   0.81775
 1144  C   1.06004   1.09266   1.04624   1.09597
 1145  H   0.83684
 1146  H   0.84638
 1147  C   1.05105   1.08560   1.04430   1.07803
 1148  H   0.84959
 1149  H   0.84469
 1150  C   1.05936   1.08225   1.05506   1.09796
 1151  H   0.84181
 1152  H   0.83231
 1153  C   1.07897   1.02190   0.99736   1.07435
 1154  H   0.81086
 1155  H   0.83328
 1156  N   1.45913   1.23109   1.22853   1.25604
 1157  H   0.69653
 1158  H   0.70007
 1159  H   0.68571
 1160  C   1.07840   0.77971   0.75034   0.82540
 1161  O   1.88110   1.77260   1.69329   1.29089
 1162  N   1.54485   1.32887   1.42522   1.23101
 1163  H   0.64015
 1164  C   1.07038   0.91872   0.95780   1.02942
 1165  H   0.83195
 1166  C   1.06278   1.10004   1.01937   1.13278
 1167  H   0.83515
 1168  H   0.84500
 1169  C   1.05374   1.07067   0.96086   0.96360
 1170  H   0.85950
 1171  C   1.06224   1.16621   1.13947   1.09210
 1172  H   0.85188
 1173  H   0.84903
 1174  H   0.85257
 1175  C   1.05739   1.18284   1.13709   1.08863
 1176  H   0.85370
 1177  H   0.84805
 1178  H   0.85424
 1179  C   1.08499   0.79119   0.79826   0.75819
 1180  O   1.88092   1.63494   1.59961   1.53644
 1181  N   1.54389   1.37281   1.43538   1.15939
 1182  H   0.64667
 1183  C   1.06729   0.91500   0.92727   1.04839
 1184  H   0.83265
 1185  C   1.05933   1.16308   1.08814   1.15288
 1186  H   0.82157
 1187  H   0.83230
 1188  H   0.82823
 1189  C   1.08847   0.78971   0.78276   0.74593
 1190  O   1.87315   1.84890   1.36350   1.58414
 1191  N   1.54648   1.16428   1.33112   1.49139
 1192  H   0.67332
 1193  C   1.07344   0.87519   1.08292   0.93769
 1194  H   0.81133
 1195  C   1.07869   1.13867   1.18825   1.00483
 1196  H   0.81036
 1197  H   0.82811
 1198  C   1.07403   0.74780   0.72819   0.68722
 1199  O   1.88669   1.77121   1.47113   1.60045
 1200  O   1.87403   1.71976   1.49071   1.78900
 1201  C   1.09071   0.81844   0.79731   0.74357
 1202  O   1.88755   1.27557   1.81799   1.56360
 1203  N   1.56700   1.29416   1.16658   1.54498
 1204  H   0.67791
 1205  C   1.07948   1.01997   0.91947   0.95300
 1206  H   0.83986
 1207  C   1.05569   1.07719   1.20288   0.96259
 1208  H   0.81333
 1209  H   0.81989
 1210  C   1.07481   0.97406   0.97729   0.96995
 1211  C   1.09016   1.04119   1.04170   1.01399
 1212  H   0.83950
 1213  C   1.08875   0.98520   1.06194   1.01010
 1214  H   0.84218
 1215  C   1.08747   1.05981   0.99170   1.03219
 1216  H   0.84775
 1217  C   1.08930   1.03712   1.03613   0.98972
 1218  H   0.83219
 1219  C   1.08701   0.98639   1.06390   1.02439
 1220  H   0.83856
 1221  C   1.08963   0.80299   0.77327   0.76306
 1222  O   1.88528   1.44423   1.55948   1.71412
 1223  N   1.53929   1.41459   1.43735   1.13644
 1224  H   0.68526
 1225  C   1.06848   0.98805   1.06840   0.98239
 1226  H   0.81381
 1227  H   0.80630
 1228  C   1.07980   0.82853   0.77859   0.70333
 1229  O   1.87703   1.84068   1.32389   1.60993
 1230  N   1.55909   1.30139   1.23397   1.44957
 1231  H   0.67446
 1232  C   1.07777   0.89817   1.03312   0.96958
 1233  H   0.83213
 1234  C   1.06799   1.11416   0.95042   1.17397
 1235  H   0.84110
 1236  H   0.82830
 1237  C   1.05194   1.03181   0.96021   1.01243
 1238  H   0.86214
 1239  C   1.05584   1.16904   1.06815   1.16027
 1240  H   0.85790
 1241  H   0.84191
 1242  H   0.85982
 1243  C   1.05560   1.17136   1.18940   1.04515
 1244  H   0.84146
 1245  H   0.84003
 1246  H   0.85829
 1247  C   1.09513   0.85796   0.76641   0.72749
 1248  O   1.88133   1.32409   1.78558   1.59281
 1249  N   1.58218   1.28182   1.23304   1.52143
 1250  H   0.66092
 1251  C   1.06866   0.96482   0.99756   0.95399
 1252  H   0.83626
 1253  C   1.05860   1.13942   1.09727   1.17438
 1254  H   0.84384
 1255  H   0.80975
 1256  H   0.81096
 1257  C   1.07568   0.83407   0.75247   0.78160
 1258  O   1.88397   1.49899   1.59905   1.64923
 1259  N   1.54299   1.31152   1.51239   1.14404
 1260  H   0.67639
 1261  C   1.06251   0.92402   1.14576   1.10580
 1262  H   0.82624
 1263  H   0.82961
 1264  H   0.83892
 1265  H   0.84126
 1266  C   1.10473   0.72491   0.79426   0.87703
 1267  O   1.88387   1.53294   1.36159   1.88308
 1268  N   1.54280   1.48749   1.35120   1.14837
 1269  H   0.67741
 1270  C   1.07277   1.11697   0.96730   0.82278
 1271  H   0.80254
 1272  C   1.05755   1.09017   1.02792   1.15038
 1273  H   0.83890
 1274  H   0.82139
 1275  C   1.06434   0.97803   0.95007   0.96859
 1276  C   1.08289   1.02018   0.99433   1.05919
 1277  H   0.83909
 1278  C   1.08237   1.04696   1.02708   0.99760
 1279  H   0.84424
 1280  C   1.08130   1.00678   1.05590   1.02616
 1281  H   0.84943
 1282  C   1.08066   1.02439   1.00384   1.05471
 1283  H   0.85492
 1284  C   1.08277   1.05889   1.02599   0.99566
 1285  H   0.84044
 1286  C   1.08016   0.76667   0.78608   0.79916
 1287  O   1.88377   1.53942   1.68063   1.53396
 1288  N   1.53641   1.17545   1.34768   1.43118
 1289  H   0.67320
 1290  C   1.05784   1.14233   0.97581   0.99828
 1291  H   0.81492
 1292  H   0.78870
 1293  C   1.07424   0.78745   0.75656   0.80190
 1294  O   1.88022   1.54253   1.38492   1.84232
 1295  N   1.53610   1.40986   1.37704   1.17729
 1296  H   0.65035
 1297  C   1.07424   1.00279   1.19862   0.87815
 1298  H   0.81284
 1299  H   0.79396
 1300  C   1.08202   0.77431   0.74506   0.80738
 1301  O   1.88290   1.52147   1.53235   1.73135
 1302  N   1.56473   1.44483   1.16590   1.26735
 1303  C   1.07079   1.06948   0.87111   1.05672
 1304  H   0.83603
 1305  H   0.84092
 1306  C   1.05708   1.04775   1.13530   1.05887
 1307  H   0.84537
 1308  H   0.80821
 1309  C   1.06100   1.08137   0.98351   1.17244
 1310  H   0.83532
 1311  H   0.81893
 1312  C   1.07353   1.05288   1.00105   0.86824
 1313  H   0.81295
 1314  C   1.08822   0.76381   0.76838   0.82882
 1315  O   1.88394   1.42693   1.43536   1.88341
 1316  N   1.54310   1.40336   1.48374   1.11755
 1317  H   0.64351
 1318  C   1.08223   1.04971   1.11424   0.89099
 1319  H   0.80065
 1320  H   0.78722
 1321  C   1.08831   0.82554   0.73023   0.77835
 1322  O   1.88491   1.70329   1.72961   1.32947
 1323  N   1.55116   1.23251   1.41124   1.34469
 1324  H   0.68853
 1325  C   1.07570   0.85980   1.06398   0.97843
 1326  H   0.82206
 1327  C   1.05962   1.16903   1.07547   0.97632
 1328  H   0.83484
 1329  H   0.83877
 1330  C   1.05817   1.13849   1.07485   1.02396
 1331  H   0.82461
 1332  H   0.87158
 1333  C   1.06375   1.08741   1.09996   0.78143
 1334  H   0.85051
 1335  H   0.81936
 1336  N   1.53282   1.62699   1.28989   1.09340
 1337  H   0.64880
 1338  C   0.97601   0.83629   0.80288   0.79450
 1339  N   1.50147   1.56332   1.25851   1.24811
 1340  H   0.67470
 1341  H   0.62634
 1342  N   1.50407   1.55700   1.35355   1.14114
 1343  H   0.64454
 1344  H   0.63717
 1345  C   1.08258   0.75743   0.77382   0.84374
 1346  O   1.88760   1.48110   1.64727   1.56808
 1347  N   1.54317   1.54504   1.19777   1.24104
 1348  H   0.67347
 1349  C   1.09003   0.99993   1.00980   0.91821
 1350  H   0.79865
 1351  C   1.08607   0.92910   0.92594   0.87521
 1352  H   0.84891
 1353  C   1.05835   1.09860   1.12878   1.20336
 1354  H   0.82593
 1355  H   0.83392
 1356  H   0.83086
 1357  O   1.84250   1.58441   1.64217   1.57246
 1358  H   0.62485
 1359  C   1.07901   0.80836   0.78927   0.75836
 1360  O   1.88634   1.54267   1.79560   1.37669
 1361  N   1.55285   1.32707   1.29602   1.37716
 1362  H   0.65185
 1363  C   1.07400   0.98911   0.92719   0.99355
 1364  H   0.81712
 1365  C   1.05775   1.09591   1.06844   1.08591
 1366  H   0.84089
 1367  H   0.83005
 1368  C   1.06134   0.97134   0.97519   1.05837
 1369  C   1.08304   0.97342   1.08023   0.99430
 1370  H   0.84435
 1371  C   1.08273   1.08139   0.99509   1.01214
 1372  H   0.80678
 1373  C   1.06599   0.82597   0.89558   0.91465
 1374  O   1.84134   1.46954   1.54089   1.69628
 1375  H   0.63895
 1376  C   1.07393   0.99039   1.09242   1.06949
 1377  H   0.84652
 1378  C   1.08160   1.06431   0.99844   0.99590
 1379  H   0.85837
 1380  C   1.08193   0.77644   0.73404   0.82102
 1381  O   1.88475   1.39050   1.55600   1.82934
 1382  N   1.55037   1.20062   1.60167   1.14816
 1383  H   0.66080
 1384  C   1.08720   1.11703   1.03483   0.83739
 1385  H   0.82126
 1386  C   1.08255   0.83224   0.89075   1.00025
 1387  H   0.86815
 1388  C   1.05718   1.09861   1.14105   1.18959
 1389  H   0.83115
 1390  H   0.84544
 1391  H   0.84154
 1392  O   1.84702   1.32392   1.76615   1.66694
 1393  H   0.61655
 1394  C   1.08207   0.82819   0.76383   0.79206
 1395  O   1.88732   1.29181   1.70640   1.67736
 1396  N   1.54293   1.22802   1.27089   1.47589
 1397  H   0.64940
 1398  C   1.07062   0.98385   1.04051   1.07618
 1399  H   0.84408
 1400  H   0.80860
 1401  C   1.07035   0.85085   0.72013   0.75160
 1402  O   1.88496   1.70090   1.45756   1.55957
 1403  N   1.55353   1.14739   1.51364   1.33250
 1404  H   0.67995
 1405  C   1.07062   0.82929   0.98739   1.12871
 1406  H   0.81441
 1407  C   1.05332   1.16412   0.98981   1.05257
 1408  H   0.83903
 1409  H   0.83629
 1410  C   1.05979   1.20563   1.01203   1.13815
 1411  H   0.84268
 1412  H   0.82603
 1413  C   1.06682   0.72282   0.72045   0.72807
 1414  O   1.88761   1.47287   1.82319   1.63680
 1415  O   1.88499   1.51810   1.58654   1.81432
 1416  C   1.08680   0.77118   0.86256   0.75471
 1417  O   1.88735   1.64832   1.65285   1.40921
 1418  N   1.54585   1.31032   1.19195   1.47859
 1419  H   0.65326
 1420  C   1.07214   1.06276   0.88119   1.00758
 1421  H   0.84365
 1422  C   1.05449   1.01864   1.03230   0.97092
 1423  H   0.83624
 1424  C   1.05592   1.17745   1.04873   1.19328
 1425  H   0.84540
 1426  H   0.83578
 1427  H   0.83797
 1428  C   1.05456   1.18134   1.16762   1.06143
 1429  H   0.84073
 1430  H   0.83977
 1431  H   0.85199
 1432  C   1.07571   0.77105   0.73157   0.84218
 1433  O   1.88366   1.36377   1.63739   1.76952
 1434  N   1.53828   1.27319   1.47278   1.21101
 1435  H   0.66894
 1436  C   1.07704   1.00720   1.05457   0.86807
 1437  H   0.82298
 1438  C   1.06065   1.02667   1.01606   0.97669
 1439  H   0.84055
 1440  C   1.05419   1.18420   1.09822   1.12133
 1441  H   0.84078
 1442  H   0.84087
 1443  H   0.85072
 1444  C   1.05738   1.18970   1.16673   1.05263
 1445  H   0.84630
 1446  H   0.83565
 1447  H   0.83862
 1448  C   1.08149   0.80658   0.78642   0.75134
 1449  O   1.88318   1.81144   1.47312   1.46021
 1450  N   1.53603   1.23696   1.43136   1.31658
 1451  H   0.66474
 1452  C   1.07957   0.90428   0.96840   1.14832
 1453  H   0.80523
 1454  C   1.07973   0.93526   0.82453   0.98310
 1455  H   0.86664
 1456  C   1.05746   1.09504   1.13586   1.19622
 1457  H   0.82490
 1458  H   0.82210
 1459  H   0.84126
 1460  O   1.84757   1.47780   1.49393   1.78191
 1461  H   0.64869
 1462  C   1.07066   0.75404   0.82637   0.79815
 1463  O   1.88059   1.50674   1.88247   1.36384
 1464  N   1.53715   1.55050   1.12177   1.29441
 1465  H   0.65725
 1466  C   1.05406   1.16776   0.87306   1.13566
 1467  H   0.83024
 1468  H   0.83705
 1469  H   0.85131
 1470  H   0.82727
 1471  C   1.10849   0.72193   0.77564   0.90302
 1472  O   1.87917   1.50026   1.39721   1.89103
 1473  N   1.54807   1.50771   1.35868   1.13686
 1474  H   0.67060
 1475  C   1.07820   1.08320   1.04086   0.80201
 1476  H   0.80366
 1477  C   1.05901   1.13420   0.99955   1.10164
 1478  H   0.81857
 1479  H   0.82214
 1480  C   1.06594   0.97591   0.99300   1.00556
 1481  C   1.08233   0.99073   1.02465   1.00446
 1482  H   0.83761
 1483  C   1.07636   1.10514   1.04983   1.06624
 1484  H   0.82033
 1485  C   1.07257   0.88645   0.88191   0.87958
 1486  O   1.83868   1.35508   1.61297   1.73275
 1487  H   0.61906
 1488  C   1.07843   0.98859   1.10013   1.09718
 1489  H   0.82129
 1490  C   1.08813   1.07850   0.97882   0.96895
 1491  H   0.83522
 1492  C   1.08085   0.79997   0.76892   0.79200
 1493  O   1.88630   1.81383   1.69954   1.28032
 1494  N   1.53470   1.25582   1.50886   1.18462
 1495  H   0.67092
 1496  C   1.06143   0.92034   1.08959   1.16683
 1497  H   0.83435
 1498  H   0.82970
 1499  H   0.83842
 1500  H   0.82485
 1501  C   1.10804   0.78633   0.88375   0.71616
 1502  O   1.88011   1.43050   1.87065   1.50910
 1503  N   1.55068   1.37512   1.18534   1.44525
 1504  H   0.64440
 1505  C   1.07867   0.96574   0.86326   1.12907
 1506  H   0.81498
 1507  C   1.05975   0.97990   0.99668   1.07642
 1508  H   0.84636
 1509  C   1.05207   1.15824   1.06262   1.17610
 1510  H   0.84448
 1511  H   0.84456
 1512  H   0.84174
 1513  C   1.04784   0.99990   1.12972   1.08497
 1514  H   0.86678
 1515  H   0.85354
 1516  C   1.04904   1.11603   1.12953   1.14941
 1517  H   0.85871
 1518  H   0.85746
 1519  H   0.84111
 1520  C   1.07241   0.85959   0.73798   0.75024
 1521  O   1.87627   1.57603   1.55604   1.67379
 1522  N   1.54217   1.18498   1.41740   1.37463
 1523  H   0.66202
 1524  C   1.07135   0.87894   1.16328   1.10827
 1525  H   0.84315
 1526  H   0.83223
 1527  H   0.83419
 1528  H   0.82763
 1529  C   1.10754   0.84811   0.73327   0.82095
 1530  O   1.88533   1.81641   1.62638   1.36682
 1531  N   1.53779   1.25348   1.40296   1.30526
 1532  H   0.64790
 1533  C   1.05916   0.89157   1.04088   1.02448
 1534  H   0.81932
 1535  C   1.06065   1.03213   1.11504   1.11413
 1536  H   0.82487
 1537  H   0.84739
 1538  C   1.04450   0.99036   0.96291   1.06048
 1539  H   0.87966
 1540  C   1.05447   1.16234   1.06830   1.18055
 1541  H   0.83890
 1542  H   0.84804
 1543  H   0.85381
 1544  C   1.05254   1.12344   1.17271   1.10787
 1545  H   0.85728
 1546  H   0.84710
 1547  H   0.84155
 1548  C   1.07852   0.72947   0.86449   0.77465
 1549  O   1.88177   1.57672   1.45155   1.73558
 1550  N   1.54015   1.57205   1.21299   1.19383
 1551  H   0.66045
 1552  C   1.07173   1.02108   0.93470   0.96070
 1553  H   0.81158
 1554  C   1.05667   1.17053   1.07933   0.99269
 1555  H   0.82428
 1556  H   0.82678
 1557  C   1.05680   1.12999   1.08826   1.03629
 1558  H   0.85359
 1559  H   0.82359
 1560  C   1.06366   1.15814   0.94509   0.90229
 1561  H   0.81562
 1562  H   0.83640
 1563  N   1.52412   1.16126   1.42466   1.39829
 1564  H   0.63938
 1565  C   0.99155   0.79145   0.81259   0.81869
 1566  N   1.51737   1.11697   1.46802   1.48669
 1567  H   0.65526
 1568  H   0.63902
 1569  N   1.50862   1.25117   1.39993   1.41128
 1570  H   0.64167
 1571  H   0.64057
 1572  C   1.08206   0.87282   0.77284   0.74628
 1573  O   1.88793   1.60637   1.59737   1.52412
 1574  N   1.53984   1.17460   1.27185   1.51696
 1575  H   0.65762
 1576  C   1.07430   0.85715   1.08614   1.03788
 1577  H   0.82112
 1578  C   1.06136   1.16363   1.09813   0.98426
 1579  H   0.84234
 1580  H   0.83886
 1581  C   1.04759   1.08159   0.95979   0.94849
 1582  H   0.86932
 1583  C   1.05592   1.17147   1.16302   1.07746
 1584  H   0.85387
 1585  H   0.86077
 1586  H   0.84728
 1587  C   1.05674   1.15732   1.09304   1.15819
 1588  H   0.85025
 1589  H   0.86052
 1590  H   0.84724
 1591  C   1.08299   0.71453   0.76144   0.70261
 1592  O   1.88393   1.46791   1.86965   1.62348
 1593  O   1.88760   1.54735   1.59423   1.80322

 **********************
 *                    *
 * JOB ENDED NORMALLY *
 *                    *
 **********************



 TOTAL JOB TIME:          1470.54 SECONDS

 == MOPAC DONE ==
