 *******************************************************************************
 **                                                                           **
 **                              MOPAC v23.2.2                                **
 **                                                                           **
 *******************************************************************************
 **          Digital Object Identifier (DOI): 10.5281/zenodo.6511958          **
 **    Visit the DOI location for information on how to cite this program.    **
 *******************************************************************************

                              PM7 CALCULATION RESULTS

 *******************************************************************************
 *  CALCULATION DONE: (MAX THREADS = 24)             Thu Jan 22 22:06:04 2026  *
 *  PM7        - The PM7 Hamiltonian to be used
 *
 *
 *
 *                 CHARGE ON SYSTEM = +2
 *
 *
 *
 *  EPS=78.4   - USE ANDREAS KLAMT'S COSMO IMPLICIT SOLVATION MODEL
 *  XYZ        - CARTESIAN COORDINATE SYSTEM TO BE USED
 *  1SCF       - DO 1 SCF AND THEN STOP 
 *  T=         - A TIME OF 172800.0 SECONDS REQUESTED
 *  DUMP=N     - RESTART FILE WRITTEN EVERY 7200.0 SECONDS REQUESTED
 *******************************************************************************
PM7 1SCF XYZ CHARGE=2 EPS=78.4


   ATOM   CHEMICAL          X               Y               Z
  NUMBER   SYMBOL      (ANGSTROMS)     (ANGSTROMS)     (ANGSTROMS)

     1       H         71.69100000  *  165.23700000  * -45.36000000  *
     2       C         70.72700000  *  165.64400000  * -45.02500000  *
     3       O         70.67100000  *  166.69300000  * -44.40000000  *
     4       N         69.64800000  *  164.94600000  * -45.35400000  *
     5       H         69.74300000  *  164.08600000  * -45.86500000  *
     6       C         68.31800000  *  165.37700000  * -44.95100000  *
     7       H         68.30400000  *  166.44500000  * -44.75000000  *
     8       C         67.27900000  *  165.08100000  * -46.05800000  *
     9       H         67.27200000  *  164.02200000  * -46.29800000  *
    10       C         65.89200000  *  165.46600000  * -45.59200000  *
    11       H         65.46400000  *  166.22900000  * -46.24500000  *
    12       H         65.23700000  *  164.60600000  * -45.62700000  *
    13       H         65.87600000  *  165.89500000  * -44.58400000  *
    14       C         67.63700000  *  165.85600000  * -47.31700000  *
    15       H         68.59400000  *  165.52900000  * -47.70800000  *
    16       H         66.87900000  *  165.66900000  * -48.07700000  *
    17       H         67.68800000  *  166.92100000  * -47.10100000  *
    18       C         67.91500000  *  164.66400000  * -43.65700000  *
    19       O         67.55300000  *  165.30600000  * -42.67600000  *
    20       N         67.98400000  *  163.33800000  * -43.65800000  *
    21       H         68.28400000  *  162.85200000  * -44.48600000  *
    22       C         67.62300000  *  162.54400000  * -42.48700000  *
    23       H         67.90600000  *  163.07600000  * -41.58100000  *
    24       C         66.12800000  *  162.23500000  * -42.45900000  *
    25       H         65.92600000  *  161.47400000  * -43.20900000  *
    26       H         65.88500000  *  161.80700000  * -41.48800000  *
    27       C         65.21300000  *  163.39800000  * -42.74000000  *
    28       H         65.33100000  *  164.15700000  * -41.96400000  *
    29       H         65.45900000  *  163.81400000  * -43.69700000  *
    30       C         63.76600000  *  162.97200000  * -42.82400000  *
    31       O         63.44700000  *  162.11400000  * -43.67900000  *
    32       O         62.94800000  *  163.49400000  * -42.03400000  *
    33       C         68.34700000  *  161.22200000  * -42.57700000  *
    34       O         68.73000000  *  160.78800000  * -43.66100000  *
    35       N         68.52400000  *  160.57500000  * -41.43500000  *
    36       H         68.03000000  *  160.89100000  * -40.60600000  *
    37       C         69.17300000  *  159.28200000  * -41.42100000  *
    38       H         69.95100000  *  159.22100000  * -42.17800000  *
    39       C         69.75600000  *  159.01000000  * -40.03200000  *
    40       H         70.21900000  *  159.94300000  * -39.71800000  *
    41       H         68.96300000  *  158.79100000  * -39.31600000  *
    42       C         70.79800000  *  157.89600000  * -39.98300000  *
    43       H         70.31100000  *  156.94100000  * -40.17400000  *
    44       H         71.53800000  *  158.07300000  * -40.76900000  *
    45       C         71.50100000  *  157.83200000  * -38.61800000  *
    46       H         70.74900000  *  157.59000000  * -37.86000000  *
    47       H         72.23100000  *  157.01800000  * -38.63800000  *
    48       C         72.18600000  *  159.16200000  * -38.26900000  *
    49       H         72.83200000  *  159.42500000  * -39.10900000  *
    50       H         71.41200000  *  159.93100000  * -38.15600000  *
    51       N         73.00000000  *  159.10500000  * -37.02500000  *
    52       H         73.70000000  *  158.37000000  * -37.07400000  *
    53       H         73.43800000  *  159.98800000  * -36.79300000  *
    54       H         72.39100000  *  158.85400000  * -36.25100000  *
    55       C         68.06200000  *  158.28700000  * -41.74800000  *
    56       O         67.16300000  *  158.08100000  * -40.94600000  *
    57       N         68.05800000  *  157.73600000  * -42.96500000  *
    58       H         68.85300000  *  157.92200000  * -43.55600000  *
    59       C         67.12600000  *  156.66800000  * -43.37400000  *
    60       H         66.11200000  *  157.07300000  * -43.39100000  *
    61       C         67.47100000  *  156.15100000  * -44.79000000  *
    62       H         68.55000000  *  156.18000000  * -44.91700000  *
    63       C         67.02000000  *  154.69900000  * -45.01700000  *
    64       H         65.96400000  *  154.59000000  * -44.77200000  *
    65       H         67.19900000  *  154.41600000  * -46.04600000  *
    66       H         67.59500000  *  154.01000000  * -44.39900000  *
    67       C         66.84500000  *  157.09800000  * -45.82900000  *
    68       H         65.76400000  *  156.95800000  * -45.84700000  *
    69       H         67.04300000  *  158.11700000  * -45.51100000  *
    70       C         67.39800000  *  156.93200000  * -47.25000000  *
    71       H         67.10500000  *  155.97200000  * -47.66800000  *
    72       H         67.00800000  *  157.72200000  * -47.88900000  *
    73       H         68.48300000  *  156.99800000  * -47.23900000  *
    74       C         67.13000000  *  155.54800000  * -42.33500000  *
    75       O         66.07200000  *  155.08900000  * -41.89900000  *
    76       N         68.33000000  *  155.13800000  * -41.92300000  *
    77       H         69.15900000  *  155.55100000  * -42.33800000  *
    78       C         68.51400000  *  154.18600000  * -40.84700000  *
    79       H         68.50700000  *  154.71700000  * -39.89500000  *
    80       H         67.69300000  *  153.46800000  * -40.84600000  *
    81       C         69.82600000  *  153.43000000  * -40.95700000  *
    82       O         70.85700000  *  153.95100000  * -41.38700000  *
    83       N         69.77100000  *  152.19200000  * -40.49300000  *
    84       H         68.86200000  *  151.82700000  * -40.24600000  *
    85       C         70.91700000  *  151.48700000  * -39.94500000  *
    86       H         71.81900000  *  152.09100000  * -40.05500000  *
    87       C         70.66400000  *  151.27700000  * -38.44200000  *
    88       H         69.83500000  *  150.58300000  * -38.30000000  *
    89       H         71.56800000  *  150.85000000  * -38.03200000  *
    90       C         70.35800000  *  152.58300000  * -37.68100000  *
    91       H         71.15700000  *  153.30300000  * -37.87600000  *
    92       H         69.42900000  *  153.01800000  * -38.05600000  *
    93       C         70.20500000  *  152.36500000  * -36.16800000  *
    94       O         69.26800000  *  151.64900000  * -35.74500000  *
    95       O         70.97000000  *  152.97700000  * -35.38800000  *
    96       C         71.11500000  *  150.17900000  * -40.72000000  *
    97       O         70.39300000  *  149.19900000  * -40.51800000  *
    98       N         72.02200000  *  150.20600000  * -41.69800000  *
    99       H         72.64600000  *  151.00300000  * -41.77000000  *
   100       C         72.14200000  *  149.16400000  * -42.71800000  *
   101       H         71.14700000  *  148.81000000  * -42.99100000  *
   102       H         72.59400000  *  149.60600000  * -43.60500000  *
   103       C         72.98200000  *  147.95300000  * -42.30500000  *
   104       O         73.49300000  *  147.85500000  * -41.19200000  *
   105       N         73.18400000  *  147.04700000  * -43.26200000  *
   106       H         72.71600000  *  147.17500000  * -44.14900000  *
   107       C         74.04600000  *  145.84900000  * -43.16000000  *
   108       H         73.78700000  *  145.29600000  * -42.25600000  *
   109       C         73.80500000  *  144.93400000  * -44.37300000  *
   110       H         74.57700000  *  144.16600000  * -44.42300000  *
   111       C         72.44600000  *  144.25200000  * -44.30500000  *
   112       H         71.64400000  *  144.99100000  * -44.31800000  *
   113       H         72.34100000  *  143.58900000  * -45.16300000  *
   114       H         72.39200000  *  143.65300000  * -43.39600000  *
   115       O         73.83900000  *  145.71700000  * -45.54100000  *
   116       H         73.31000000  *  145.27500000  * -46.24100000  *
   117       C         75.54600000  *  146.15400000  * -43.08900000  *
   118       O         76.29000000  *  145.32400000  * -42.57200000  *
   119       N         75.98100000  *  147.33000000  * -43.56900000  *
   120       H         75.29200000  *  147.89900000  * -44.03000000  *
   121       C         77.39700000  *  147.72000000  * -43.71100000  *
   122       H         78.01700000  *  147.07200000  * -43.09000000  *
   123       C         77.82900000  *  147.53400000  * -45.17700000  *
   124       H         77.22600000  *  148.18800000  * -45.80700000  *
   125       H         78.87000000  *  147.84000000  * -45.28400000  *
   126       C         77.73800000  *  146.12000000  * -45.69100000  *
   127       C         78.65300000  *  145.16100000  * -45.22400000  *
   128       H         79.42700000  *  145.44400000  * -44.52100000  *
   129       C         78.54600000  *  143.82900000  * -45.65000000  *
   130       H         79.24300000  *  143.09800000  * -45.27300000  *
   131       C         77.52000000  *  143.45600000  * -46.54400000  *
   132       O         77.37300000  *  142.15900000  * -46.90100000  *
   133       H         77.82600000  *  141.58900000  * -46.25200000  *
   134       C         76.62300000  *  144.42400000  * -47.03600000  *
   135       H         75.82700000  *  144.13700000  * -47.70400000  *
   136       C         76.74100000  *  145.76000000  * -46.61600000  *
   137       H         76.03700000  *  146.49800000  * -46.97400000  *
   138       C         77.72600000  *  149.16500000  * -43.29300000  *
   139       O         78.87000000  *  149.58400000  * -43.45200000  *
   140       N         76.76800000  *  149.95000000  * -42.79100000  *
   141       H         75.85500000  *  149.56800000  * -42.59800000  *
   142       C         76.98200000  *  151.36800000  * -42.47700000  *
   143       H         77.53300000  *  151.45500000  * -41.54300000  *
   144       H         77.59000000  *  151.81200000  * -43.25600000  *
   145       C         75.68200000  *  152.16100000  * -42.34700000  *
   146       O         74.61500000  *  151.56900000  * -42.15700000  *
   147       N         75.75500000  *  153.49500000  * -42.44900000  *
   148       H         76.58800000  *  153.89400000  * -42.85900000  *
   149       C         74.59200000  *  154.32600000  * -42.21200000  *
   150       H         73.82600000  *  153.78000000  * -41.65800000  *
   151       C         74.95900000  *  155.54800000  * -41.37000000  *
   152       H         75.70700000  *  156.13900000  * -41.89300000  *
   153       C         73.73100000  *  156.40900000  * -41.13300000  *
   154       H         72.94300000  *  155.80300000  * -40.68200000  *
   155       H         73.98600000  *  157.21200000  * -40.45000000  *
   156       H         73.36800000  *  156.84900000  * -42.06500000  *
   157       C         75.54500000  *  155.09600000  * -40.05300000  *
   158       H         76.46000000  *  154.52800000  * -40.19800000  *
   159       H         75.77700000  *  155.95300000  * -39.42300000  *
   160       H         74.80500000  *  154.48400000  * -39.53200000  *
   161       C         74.01900000  *  154.79200000  * -43.53700000  *
   162       O         74.76100000  *  155.18400000  * -44.43700000  *
   163       N         72.70000000  *  154.66100000  * -43.66600000  *
   164       H         72.17100000  *  154.34900000  * -42.85500000  *
   165       C         71.92700000  *  155.10500000  * -44.82600000  *
   166       H         72.59000000  *  155.16600000  * -45.68600000  *
   167       C         70.78700000  *  154.12200000  * -45.16400000  *
   168       H         69.95000000  *  154.30000000  * -44.49100000  *
   169       C         70.32100000  *  154.35500000  * -46.60700000  *
   170       H         71.13000000  *  154.14000000  * -47.30500000  *
   171       H         69.47500000  *  153.70400000  * -46.83200000  *
   172       H         70.01100000  *  155.38900000  * -46.74100000  *
   173       C         71.17900000  *  152.64800000  * -45.00600000  *
   174       H         72.08400000  *  152.44200000  * -45.57100000  *
   175       H         71.34400000  *  152.41400000  * -43.95400000  *
   176       H         70.36900000  *  152.01200000  * -45.36700000  *
   177       C         71.36300000  *  156.49200000  * -44.52900000  *
   178       O         70.65100000  *  156.64900000  * -43.53200000  *
   179       N         71.62500000  *  157.49000000  * -45.37400000  *
   180       H         72.23900000  *  157.32200000  * -46.16900000  *
   181       C         71.01800000  *  158.79600000  * -45.21900000  *
   182       H         70.37900000  *  158.84300000  * -44.33800000  *
   183       C         72.10000000  *  159.86100000  * -45.06900000  *
   184       H         72.79900000  *  159.78100000  * -45.90500000  *
   185       H         71.63400000  *  160.84400000  * -45.14300000  *
   186       C         72.87100000  *  159.84300000  * -43.76800000  *
   187       C         72.34700000  *  160.43100000  * -42.61900000  *
   188       H         71.37700000  *  160.90600000  * -42.66800000  *
   189       C         73.06400000  *  160.45200000  * -41.42500000  *
   190       H         72.63300000  *  160.94600000  * -40.56800000  *
   191       C         74.33000000  *  159.87400000  * -41.37100000  *
   192       O         75.04700000  *  159.90100000  * -40.18700000  *
   193       H         74.69700000  *  160.54100000  * -39.56800000  *
   194       C         74.87500000  *  159.27800000  * -42.50300000  *
   195       H         75.78500000  *  158.71900000  * -42.41900000  *
   196       C         74.14000000  *  159.26700000  * -43.69600000  *
   197       H         74.51800000  *  158.73300000  * -44.56500000  *
   198       C         70.16700000  *  159.17400000  * -46.42900000  *
   199       O         70.41800000  *  158.72400000  * -47.55600000  *
   200       N         69.02300000  *  159.82100000  * -46.21200000  *
   201       H         68.83000000  *  160.12600000  * -45.26400000  *
   202       C         68.29400000  *  160.49800000  * -47.28400000  *
   203       H         68.29000000  *  159.89400000  * -48.19400000  *
   204       C         66.84700000  *  160.80400000  * -46.85400000  *
   205       H         66.34300000  *  159.87300000  * -46.60300000  *
   206       H         66.85500000  *  161.43700000  * -45.96500000  *
   207       C         66.03400000  *  161.49100000  * -47.96400000  *
   208       H         66.50200000  *  162.43800000  * -48.23400000  *
   209       H         66.01500000  *  160.84500000  * -48.84300000  *
   210       C         64.59700000  *  161.75800000  * -47.49000000  *
   211       H         64.14600000  *  160.82100000  * -47.15800000  *
   212       H         64.62400000  *  162.45100000  * -46.64800000  *
   213       C         63.75400000  *  162.35200000  * -48.62600000  *
   214       H         64.26900000  *  163.23400000  * -49.02000000  *
   215       H         63.68800000  *  161.61100000  * -49.43100000  *
   216       N         62.39100000  *  162.72900000  * -48.16500000  *
   217       H         62.42900000  *  163.43300000  * -47.44200000  *
   218       H         61.84100000  *  163.11100000  * -48.92200000  *
   219       H         61.89200000  *  161.93400000  * -47.79100000  *
   220       C         69.09700000  *  161.76000000  * -47.51100000  *
   221       O         69.32300000  *  162.49400000  * -46.55100000  *
   222       N         69.55500000  *  162.00600000  * -48.72500000  *
   223       H         69.34400000  *  161.34200000  * -49.46700000  *
   224       C         70.34900000  *  163.18200000  * -49.01700000  *
   225       H         70.22500000  *  163.93500000  * -48.24000000  *
   226       C         71.81400000  *  162.79200000  * -49.07000000  *
   227       H         71.97800000  *  162.06700000  * -49.86400000  *
   228       H         72.42900000  *  163.67700000  * -49.23900000  *
   229       H         72.10500000  *  162.33200000  * -48.12600000  *
   230       C         69.94400000  *  163.83800000  * -50.32200000  *
   231       O         69.22100000  *  163.25100000  * -51.12800000  *
   232       N         70.40700000  *  165.06400000  * -50.52400000  *
   233       H         70.93200000  *  165.53000000  * -49.79600000  *
   234       C         70.10800000  *  165.77900000  * -51.74600000  *
   235       H         69.54100000  *  165.15900000  * -52.44400000  *
   236       H         69.52200000  *  166.69100000  * -51.53000000  *
   237       H         71.05900000  *  166.04700000  * -52.23900000  *
   238       H         68.08600000  *  164.80700000  * -56.55000000  *
   239       C         68.21200000  *  164.39600000  * -55.53600000  *
   240       O         69.28600000  *  164.50800000  * -54.94200000  *
   241       N         67.13500000  *  163.82300000  * -55.01100000  *
   242       H         66.34000000  *  163.66800000  * -55.61500000  *
   243       C         67.13600000  *  163.21200000  * -53.68800000  *
   244       H         67.86300000  *  163.70700000  * -53.05000000  *
   245       C         65.75500000  *  163.32300000  * -53.02900000  *
   246       H         64.97700000  *  163.06900000  * -53.75000000  *
   247       C         65.64800000  *  162.36600000  * -51.85200000  *
   248       H         66.47200000  *  162.51800000  * -51.15200000  *
   249       H         64.69700000  *  162.53800000  * -51.34700000  *
   250       H         65.65200000  *  161.33900000  * -52.20000000  *
   251       C         65.54000000  *  164.75000000  * -52.56600000  *
   252       H         65.62600000  *  165.42400000  * -53.41600000  *
   253       H         64.53500000  *  164.85100000  * -52.15900000  *
   254       H         66.28400000  *  165.00300000  * -51.81000000  *
   255       C         67.52600000  *  161.76000000  * -53.84700000  *
   256       O         66.97900000  *  161.02800000  * -54.68200000  *
   257       N         68.49600000  *  161.34900000  * -53.04800000  *
   258       H         68.91100000  *  161.99700000  * -52.39100000  *
   259       C         69.01100000  *  159.99200000  * -53.10200000  *
   260       H         68.34600000  *  159.34100000  * -53.67900000  *
   261       C         70.37400000  *  159.97400000  * -53.81600000  *
   262       H         70.77500000  *  158.96500000  * -53.87500000  *
   263       C         70.21400000  *  160.50700000  * -55.21300000  *
   264       H         69.95700000  *  161.56600000  * -55.19000000  *
   265       H         71.15100000  *  160.39100000  * -55.75600000  *
   266       H         69.44200000  *  159.95000000  * -55.73600000  *
   267       C         71.37900000  *  160.85000000  * -53.05700000  *
   268       H         71.56500000  *  160.44500000  * -52.06400000  *
   269       H         72.31500000  *  160.84900000  * -53.61300000  *
   270       H         71.03600000  *  161.88400000  * -52.98400000  *
   271       C         69.19200000  *  159.37200000  * -51.72900000  *
   272       O         69.02000000  *  160.03600000  * -50.68600000  *
   273       N         69.38100000  *  158.05800000  * -51.70300000  *
   274       H         69.45400000  *  157.56500000  * -52.58900000  *
   275       C         69.75800000  *  157.32200000  * -50.51200000  *
   276       H         69.47900000  *  157.88600000  * -49.62400000  *
   277       C         68.99700000  *  156.00300000  * -50.47300000  *
   278       H         69.20700000  *  155.42900000  * -51.37200000  *
   279       H         69.29600000  *  155.42800000  * -49.59600000  *
   280       H         67.92900000  *  156.21000000  * -50.41500000  *
   281       C         71.27600000  *  157.14000000  * -50.53700000  *
   282       O         71.81000000  *  156.45800000  * -51.41800000  *
   283       N         71.97000000  *  157.79100000  * -49.60300000  *
   284       H         71.44500000  *  158.28300000  * -48.88900000  *
   285       C         73.41300000  *  157.73400000  * -49.53500000  *
   286       H         73.80300000  *  157.43200000  * -50.50200000  *
   287       C         73.96100000  *  159.11400000  * -49.18200000  *
   288       H         73.49200000  *  159.84000000  * -49.85100000  *
   289       H         73.62800000  *  159.35800000  * -48.16900000  *
   290       C         75.47300000  *  159.31600000  * -49.26600000  *
   291       H         75.96900000  *  158.63700000  * -48.57100000  *
   292       C         75.94900000  *  159.02000000  * -50.68400000  *
   293       H         75.44100000  *  159.71800000  * -51.34800000  *
   294       H         77.02400000  *  159.18800000  * -50.76300000  *
   295       H         75.74700000  *  157.98700000  * -50.96800000  *
   296       C         75.80400000  *  160.74000000  * -48.87900000  *
   297       H         75.43700000  *  160.94600000  * -47.87600000  *
   298       H         76.88200000  *  160.87900000  * -48.92200000  *
   299       H         75.32000000  *  161.42900000  * -49.57600000  *
   300       C         73.82100000  *  156.71600000  * -48.48500000  *
   301       O         73.39600000  *  156.78100000  * -47.33400000  *
   302       N         74.64800000  *  155.75300000  * -48.88400000  *
   303       H         74.89000000  *  155.73100000  * -49.87300000  *
   304       C         75.12900000  *  154.63700000  * -48.05900000  *
   305       H         74.60900000  *  154.62400000  * -47.09900000  *
   306       C         74.83000000  *  153.32900000  * -48.83000000  *
   307       H         74.30900000  *  153.57100000  * -49.75900000  *
   308       H         75.76000000  *  152.83600000  * -49.11400000  *
   309       C         73.94900000  *  152.31400000  * -48.09900000  *
   310       H         73.12900000  *  152.83000000  * -47.60100000  *
   311       H         73.52200000  *  151.66700000  * -48.86400000  *
   312       C         74.74100000  *  151.46100000  * -47.09200000  *
   313       H         75.68600000  *  151.14900000  * -47.54100000  *
   314       H         74.97500000  *  152.07300000  * -46.21800000  *
   315       C         73.97900000  *  150.20200000  * -46.64100000  *
   316       H         74.59200000  *  149.69000000  * -45.89400000  *
   317       H         73.04600000  *  150.50900000  * -46.15400000  *
   318       N         73.68300000  *  149.27900000  * -47.77700000  *
   319       H         74.51000000  *  149.03400000  * -48.30600000  *
   320       H         73.24600000  *  148.39800000  * -47.47300000  *
   321       H         72.99100000  *  149.68500000  * -48.39900000  *
   322       C         76.62300000  *  154.83600000  * -47.79500000  *
   323       O         77.41600000  *  154.65400000  * -48.71000000  *
   324       N         77.01700000  *  155.22600000  * -46.58100000  *
   325       H         76.29800000  *  155.26800000  * -45.86500000  *
   326       C         78.42200000  *  155.28900000  * -46.15900000  *
   327       H         79.06600000  *  155.59300000  * -46.98900000  *
   328       C         78.56700000  *  156.26000000  * -44.97900000  *
   329       H         78.02700000  *  155.87500000  * -44.10900000  *
   330       H         79.62500000  *  156.33900000  * -44.73000000  *
   331       C         78.01500000  *  157.64300000  * -45.34000000  *
   332       H         78.45100000  *  157.95800000  * -46.27300000  *
   333       H         76.93600000  *  157.57500000  * -45.50000000  *
   334       C         78.25100000  *  158.72500000  * -44.27900000  *
   335       H         77.97800000  *  159.68000000  * -44.73200000  *
   336       H         77.56000000  *  158.53300000  * -43.46900000  *
   337       C         79.67700000  *  158.85000000  * -43.70900000  *
   338       H         80.38400000  *  158.36300000  * -44.39700000  *
   339       H         79.95000000  *  159.91100000  * -43.68600000  *
   340       N         79.78800000  *  158.26900000  * -42.33500000  *
   341       H         79.63700000  *  157.26100000  * -42.37000000  *
   342       H         80.69600000  *  158.42600000  * -41.93200000  *
   343       H         79.10400000  *  158.64600000  * -41.70100000  *
   344       C         78.82300000  *  153.89100000  * -45.72900000  *
   345       O         78.09100000  *  153.31500000  * -44.93700000  *
   346       N         79.90700000  *  153.32000000  * -46.24700000  *
   347       H         80.40500000  *  153.76400000  * -47.01000000  *
   348       C         80.34300000  *  152.02200000  * -45.76800000  *
   349       H         79.49500000  *  151.49800000  * -45.35900000  *
   350       C         80.94400000  *  151.18600000  * -46.89500000  *
   351       H         81.78600000  *  151.78200000  * -47.16900000  *
   352       C         81.42400000  *  149.85200000  * -46.34500000  *
   353       H         80.65600000  *  149.35200000  * -45.75200000  *
   354       H         81.67900000  *  149.19900000  * -47.17900000  *
   355       H         82.34500000  *  149.95700000  * -45.76100000  *
   356       C         79.89700000  *  150.97600000  * -47.99700000  *
   357       H         79.60200000  *  151.87000000  * -48.50000000  *
   358       H         80.28300000  *  150.30500000  * -48.75000000  *
   359       C         78.59100000  *  150.36100000  * -47.52600000  *
   360       H         78.17700000  *  150.90100000  * -46.69000000  *
   361       H         77.89400000  *  150.33700000  * -48.36300000  *
   362       H         78.77100000  *  149.33300000  * -47.20900000  *
   363       C         81.33300000  *  152.07100000  * -44.61400000  *
   364       O         82.16700000  *  152.98000000  * -44.51900000  *
   365       N         81.21100000  *  151.07100000  * -43.74300000  *
   366       H         80.50300000  *  150.36100000  * -43.92800000  *
   367       C         82.04400000  *  150.90200000  * -42.55200000  *
   368       H         81.47500000  *  151.18100000  * -41.66300000  *
   369       H         82.35800000  *  149.86100000  * -42.45900000  *
   370       H         82.94700000  *  151.51400000  * -42.62000000  *
   371       H         81.25700000  *  144.04600000  * -57.89900000  *
   372       C         80.50000000  *  144.84100000  * -57.88800000  *
   373       O         79.71500000  *  144.99000000  * -58.82400000  *
   374       N         80.49900000  *  145.60300000  * -56.79700000  *
   375       H         81.28000000  *  145.52500000  * -56.16600000  *
   376       C         79.57000000  *  146.70600000  * -56.61200000  *
   377       H         78.57500000  *  146.34400000  * -56.42300000  *
   378       C         80.00500000  *  147.61000000  * -55.44200000  *
   379       H         80.89800000  *  148.18000000  * -55.68500000  *
   380       C         78.90600000  *  148.60800000  * -55.12500000  *
   381       H         77.92000000  *  148.14100000  * -55.17600000  *
   382       H         79.04500000  *  148.98700000  * -54.11600000  *
   383       H         78.93800000  *  149.43600000  * -55.83300000  *
   384       C         80.32100000  *  146.76200000  * -54.20900000  *
   385       H         81.19200000  *  146.13400000  * -54.40600000  *
   386       H         80.59400000  *  147.42200000  * -53.38900000  *
   387       C         79.18400000  *  145.87900000  * -53.76500000  *
   388       H         78.77800000  *  145.31100000  * -54.59400000  *
   389       H         79.50900000  *  145.12200000  * -53.06500000  *
   390       H         78.38800000  *  146.48300000  * -53.33500000  *
   391       C         79.54300000  *  147.54500000  * -57.87900000  *
   392       O         78.48200000  *  147.77900000  * -58.45100000  *
   393       N         80.72300000  *  147.98900000  * -58.30900000  *
   394       H         81.55800000  *  147.70100000  * -57.81200000  *
   395       C         80.85900000  *  148.80400000  * -59.51100000  *
   396       H         80.33900000  *  149.74600000  * -59.38600000  *
   397       H         81.92800000  *  148.98500000  * -59.72900000  *
   398       H         80.37800000  *  148.32200000  * -60.38100000  *
   399       H         78.96400000  *  146.08700000  * -61.65600000  *
   400       C         77.87300000  *  146.08700000  * -61.51600000  *
   401       O         77.11500000  *  145.89500000  * -62.46400000  *
   402       N         77.44600000  *  146.31800000  * -60.28000000  *
   403       H         78.13400000  *  146.42500000  * -59.54900000  *
   404       C         76.02800000  *  146.35200000  * -59.94500000  *
   405       H         75.53300000  *  145.47600000  * -60.35900000  *
   406       C         75.84100000  *  146.37400000  * -58.43100000  *
   407       H         76.20500000  *  147.30400000  * -58.01800000  *
   408       H         74.76300000  *  146.35700000  * -58.24200000  *
   409       C         76.47200000  *  145.22200000  * -57.65900000  *
   410       H         77.55000000  *  145.23900000  * -57.74900000  *
   411       C         76.08000000  *  145.34100000  * -56.19200000  *
   412       H         74.99900000  *  145.23000000  * -56.07700000  *
   413       H         76.57300000  *  144.55300000  * -55.62900000  *
   414       H         76.38500000  *  146.30900000  * -55.80100000  *
   415       C         75.99600000  *  143.89000000  * -58.23600000  *
   416       H         76.41500000  *  143.73000000  * -59.22900000  *
   417       H         76.32800000  *  143.07800000  * -57.59100000  *
   418       H         74.90500000  *  143.87400000  * -58.30500000  *
   419       C         75.32200000  *  147.55900000  * -60.54800000  *
   420       O         74.09500000  *  147.56800000  * -60.66200000  *
   421       N         76.08400000  *  148.63100000  * -60.82900000  *
   422       H         77.08200000  *  148.53500000  * -60.67700000  *
   423       C         75.60100000  *  149.83300000  * -61.53400000  *
   424       H         74.83700000  *  150.33500000  * -60.94100000  *
   425       H         76.43800000  *  150.53300000  * -61.75900000  *
   426       H         75.13800000  *  149.54900000  * -62.49200000  *
   427       H         62.79000000  *  145.77200000  * -59.27600000  *
   428       C         63.71000000  *  145.72000000  * -58.67500000  *
   429       O         63.77900000  *  145.02200000  * -57.66400000  *
   430       N         64.72400000  *  146.45200000  * -59.11400000  *
   431       H         64.63800000  *  147.05100000  * -59.92700000  *
   432       C         65.97100000  *  146.53500000  * -58.38100000  *
   433       H         65.88400000  *  146.09200000  * -57.38600000  *
   434       C         67.11600000  *  145.87700000  * -59.11400000  *
   435       H         67.33600000  *  146.42600000  * -60.03000000  *
   436       C         68.35100000  *  145.87800000  * -58.21400000  *
   437       H         68.14700000  *  145.31400000  * -57.31800000  *
   438       H         69.21000000  *  145.44500000  * -58.72400000  *
   439       H         68.64100000  *  146.89000000  * -57.94500000  *
   440       C         66.72800000  *  144.44400000  * -59.47800000  *
   441       H         66.54900000  *  143.87300000  * -58.56400000  *
   442       H         65.81500000  *  144.42400000  * -60.06800000  *
   443       C         67.77400000  *  143.72700000  * -60.29600000  *
   444       H         68.68300000  *  143.57700000  * -59.72200000  *
   445       H         67.37700000  *  142.75300000  * -60.59800000  *
   446       H         68.02300000  *  144.31300000  * -61.18000000  *
   447       C         66.29500000  *  148.01000000  * -58.22000000  *
   448       O         66.21200000  *  148.78000000  * -59.18400000  *
   449       N         66.54800000  *  148.44300000  * -56.98100000  *
   450       H         66.61500000  *  147.76500000  * -56.22700000  *
   451       C         66.88200000  *  149.84400000  * -56.69000000  *
   452       H         66.07000000  *  150.48200000  * -57.03900000  *
   453       C         67.06400000  *  150.07600000  * -55.18200000  *
   454       H         67.85100000  *  149.42100000  * -54.80600000  *
   455       C         67.43900000  *  151.52600000  * -54.85800000  *
   456       H         66.62800000  *  152.20100000  * -55.12900000  *
   457       H         67.63600000  *  151.60900000  * -53.79100000  *
   458       H         68.33900000  *  151.82400000  * -55.39100000  *
   459       C         65.76400000  *  149.76900000  * -54.43700000  *
   460       H         65.52400000  *  148.71100000  * -54.50100000  *
   461       H         65.89200000  *  150.02400000  * -53.39200000  *
   462       H         64.94800000  *  150.35400000  * -54.85300000  *
   463       C         68.14900000  *  150.21800000  * -57.45000000  *
   464       O         69.17700000  *  149.54800000  * -57.32000000  *
   465       N         68.08000000  *  151.28300000  * -58.25100000  *
   466       H         67.22500000  *  151.80400000  * -58.24500000  *
   467       C         69.18900000  *  151.69800000  * -59.08000000  *
   468       H         69.52500000  *  150.81900000  * -59.63900000  *
   469       C         68.73700000  *  152.76800000  * -60.08300000  *
   470       H         67.83400000  *  152.41100000  * -60.57900000  *
   471       H         68.47700000  *  153.68100000  * -59.53700000  *
   472       C         69.79100000  *  153.06900000  * -61.13100000  *
   473       H         70.72100000  *  153.35000000  * -60.64200000  *
   474       H         69.97400000  *  152.16800000  * -61.71600000  *
   475       C         69.35100000  *  154.17900000  * -62.08100000  *
   476       H         68.50200000  *  153.81400000  * -62.66100000  *
   477       H         69.02300000  *  155.05600000  * -61.52200000  *
   478       C         70.49800000  *  154.55900000  * -63.02400000  *
   479       H         71.33900000  *  154.89000000  * -62.40800000  *
   480       H         70.81900000  *  153.66100000  * -63.56600000  *
   481       N         70.11800000  *  155.62600000  * -63.99700000  *
   482       H         69.74700000  *  156.41600000  * -63.48300000  *
   483       H         70.92600000  *  155.93300000  * -64.52500000  *
   484       H         69.41500000  *  155.27800000  * -64.63600000  *
   485       C         70.36000000  *  152.21400000  * -58.25300000  *
   486       O         70.19400000  *  153.07400000  * -57.38700000  *
   487       N         71.53700000  *  151.64500000  * -58.50700000  *
   488       H         71.59600000  *  150.90400000  * -59.18600000  *
   489       C         72.75000000  *  152.07400000  * -57.83600000  *
   490       H         72.53800000  *  152.52600000  * -56.87100000  *
   491       C         73.72700000  *  150.91100000  * -57.67000000  *
   492       H         73.31500000  *  150.22100000  * -56.93700000  *
   493       H         73.77900000  *  150.36900000  * -58.62000000  *
   494       C         75.16700000  *  151.27300000  * -57.28800000  *
   495       H         75.65500000  *  151.80300000  * -58.10000000  *
   496       C         75.18300000  *  152.16500000  * -56.05900000  *
   497       H         74.60800000  *  151.72100000  * -55.25200000  *
   498       H         76.21000000  *  152.29600000  * -55.73500000  *
   499       H         74.78900000  *  153.14000000  * -56.31200000  *
   500       C         75.93300000  *  149.99400000  * -57.01300000  *
   501       H         75.98300000  *  149.42100000  * -57.93300000  *
   502       H         76.94600000  *  150.24200000  * -56.71200000  *
   503       H         75.43500000  *  149.41000000  * -56.23200000  *
   504       C         73.31900000  *  153.11300000  * -58.79500000  *
   505       O         73.76900000  *  152.77900000  * -59.89700000  *
   506       N         73.26700000  *  154.36900000  * -58.37800000  *
   507       H         72.92600000  *  154.57000000  * -57.44900000  *
   508       C         73.73400000  *  155.46600000  * -59.19700000  *
   509       H         73.47500000  *  155.26500000  * -60.23600000  *
   510       C         73.02500000  *  156.74200000  * -58.76000000  *
   511       H         73.45000000  *  157.06300000  * -57.80900000  *
   512       H         73.23600000  *  157.53300000  * -59.48700000  *
   513       C         71.51300000  *  156.60300000  * -58.58700000  *
   514       H         71.27400000  *  155.80900000  * -57.88500000  *
   515       C         70.97400000  *  157.88000000  * -58.01900000  *
   516       H         71.37000000  *  158.74600000  * -58.56000000  *
   517       H         69.88800000  *  157.89100000  * -58.09300000  *
   518       H         71.22100000  *  157.96000000  * -56.96600000  *
   519       C         70.85100000  *  156.29000000  * -59.92300000  *
   520       H         71.28300000  *  155.39700000  * -60.34200000  *
   521       H         69.78900000  *  156.14400000  * -59.75100000  *
   522       H         71.00300000  *  157.12700000  * -60.60700000  *
   523       C         75.24500000  *  155.67800000  * -59.15800000  *
   524       O         75.83900000  *  156.04700000  * -60.17600000  *
   525       N         75.86200000  *  155.44600000  * -57.99600000  *
   526       H         75.29500000  *  155.17900000  * -57.20400000  *
   527       C         77.30800000  *  155.64700000  * -57.82900000  *
   528       H         77.80800000  *  155.40400000  * -58.76600000  *
   529       C         77.60000000  *  157.11700000  * -57.51900000  *
   530       H         76.91700000  *  157.54400000  * -56.80300000  *
   531       H         78.58200000  *  157.17000000  * -57.04800000  *
   532       C         77.65600000  *  157.97500000  * -58.75600000  *
   533       O         78.67800000  *  157.91700000  * -59.48300000  *
   534       O         76.67400000  *  158.70400000  * -59.00000000  *
   535       C         77.97900000  *  154.81700000  * -56.73400000  *
   536       O         77.37100000  *  154.52100000  * -55.70400000  *
   537       N         79.24700000  *  154.47700000  * -56.96600000  *
   538       H         79.69800000  *  154.82400000  * -57.79800000  *
   539       C         80.06100000  *  153.73800000  * -56.00300000  *
   540       H         79.55400000  *  153.69900000  * -55.05200000  *
   541       C         80.36600000  *  152.29800000  * -56.50400000  *
   542       H         79.42700000  *  151.75200000  * -56.56200000  *
   543       C         80.98100000  *  152.34300000  * -57.88400000  *
   544       H         82.06600000  *  152.43300000  * -57.82100000  *
   545       H         80.74600000  *  151.41400000  * -58.37900000  *
   546       H         80.59600000  *  153.14500000  * -58.51000000  *
   547       C         81.29900000  *  151.58800000  * -55.53900000  *
   548       H         80.81100000  *  151.54900000  * -54.57200000  *
   549       H         81.47300000  *  150.57200000  * -55.87800000  *
   550       H         82.25900000  *  152.09200000  * -55.44900000  *
   551       C         81.36500000  *  154.53600000  * -55.81000000  *
   552       O         82.27000000  *  154.48900000  * -56.64700000  *
   553       N         81.45200000  *  155.28200000  * -54.71000000  *
   554       H         80.67600000  *  155.30400000  * -54.06400000  *
   555       C         82.62100000  *  156.11100000  * -54.44300000  *
   556       H         83.20500000  *  156.21800000  * -55.35800000  *
   557       H         82.32200000  *  157.12800000  * -54.14500000  *
   558       H         83.29700000  *  155.73900000  * -53.65600000  *
   559       H         84.58000000  *  155.17100000  * -47.07300000  *
   560       C         84.22500000  *  154.98400000  * -48.09100000  *
   561       O         84.63900000  *  155.65900000  * -49.04200000  *
   562       N         83.35800000  *  153.99100000  * -48.22200000  *
   563       H         83.13600000  *  153.42800000  * -47.41700000  *
   564       C         82.77600000  *  153.65100000  * -49.50600000  *
   565       H         83.37000000  *  154.04700000  * -50.31700000  *
   566       C         82.71900000  *  152.14000000  * -49.66000000  *
   567       H         83.74000000  *  151.87500000  * -49.95700000  *
   568       H         82.64400000  *  151.54600000  * -48.78400000  *
   569       C         81.82600000  *  151.61900000  * -50.77900000  *
   570       H         80.79100000  *  151.88400000  * -50.58700000  *
   571       C         82.25800000  *  152.23100000  * -52.09200000  *
   572       H         83.31100000  *  152.49100000  * -52.08900000  *
   573       H         82.09300000  *  151.51300000  * -52.88400000  *
   574       H         81.65400000  *  153.10900000  * -52.31200000  *
   575       C         81.89900000  *  150.09400000  * -50.82200000  *
   576       H         81.91300000  *  149.66400000  * -49.82700000  *
   577       H         81.05200000  *  149.70600000  * -51.39100000  *
   578       H         82.82500000  *  149.80300000  * -51.32100000  *
   579       C         81.36700000  *  154.23200000  * -49.54800000  *
   580       O         80.51800000  *  153.85700000  * -48.74500000  *
   581       N         81.13100000  *  155.16100000  * -50.46700000  *
   582       H         81.84500000  *  155.34800000  * -51.16200000  *
   583       C         79.82200000  *  155.78100000  * -50.60800000  *
   584       H         79.27400000  *  155.67000000  * -49.68700000  *
   585       C         79.96700000  *  157.27800000  * -50.86800000  *
   586       H         80.42300000  *  157.50400000  * -51.79700000  *
   587       H         78.95400000  *  157.66400000  * -50.98900000  *
   588       C         80.57600000  *  158.04300000  * -49.72300000  *
   589       C         79.79300000  *  158.48000000  * -48.65600000  *
   590       H         78.73500000  *  158.25400000  * -48.66900000  *
   591       C         80.35600000  *  159.18600000  * -47.59400000  *
   592       H         79.75300000  *  159.56200000  * -46.79700000  *
   593       C         81.71600000  *  159.45200000  * -47.58700000  *
   594       O         82.27600000  *  160.12500000  * -46.52100000  *
   595       H         83.20600000  *  160.30800000  * -46.74500000  *
   596       C         82.51400000  *  159.02600000  * -48.63700000  *
   597       H         83.58200000  *  159.23300000  * -48.65000000  *
   598       C         81.94100000  *  158.32800000  * -49.69800000  *
   599       H         82.57400000  *  157.98100000  * -50.50200000  *
   600       C         79.04800000  *  155.15800000  * -51.76500000  *
   601       O         79.54400000  *  155.08000000  * -52.88800000  *
   602       N         77.86200000  *  154.62400000  * -51.49400000  *
   603       H         77.53800000  *  154.64400000  * -50.53300000  *
   604       C         76.98100000  *  154.05400000  * -52.51100000  *
   605       H         77.50600000  *  154.00000000  * -53.45900000  *
   606       C         76.54600000  *  152.62400000  * -52.14900000  *
   607       H         75.85600000  *  152.67300000  * -51.31500000  *
   608       H         76.00000000  *  152.21700000  * -53.00200000  *
   609       C         77.68100000  *  151.65400000  * -51.78200000  *
   610       H         78.19500000  *  152.00600000  * -50.88700000  *
   611       C         77.10800000  *  150.26700000  * -51.49500000  *
   612       H         76.61600000  *  149.87200000  * -52.38500000  *
   613       H         77.91100000  *  149.59100000  * -51.20000000  *
   614       H         76.38700000  *  150.32700000  * -50.68100000  *
   615       C         78.68800000  *  151.52400000  * -52.91800000  *
   616       H         79.21000000  *  152.46800000  * -53.05400000  *
   617       H         79.42300000  *  150.76200000  * -52.66700000  *
   618       H         78.17600000  *  151.25500000  * -53.84300000  *
   619       C         75.78600000  *  154.98600000  * -52.67200000  *
   620       O         75.10300000  *  155.26200000  * -51.68200000  *
   621       N         75.54700000  *  155.50800000  * -53.87800000  *
   622       H         76.14500000  *  155.25500000  * -54.66000000  *
   623       C         74.40900000  *  156.37500000  * -54.09400000  *
   624       H         73.97600000  *  156.70200000  * -53.15000000  *
   625       C         74.83400000  *  157.63700000  * -54.81800000  *
   626       H         75.25500000  *  157.34500000  * -55.76600000  *
   627       C         73.61400000  *  158.52200000  * -55.10900000  *
   628       H         73.11700000  *  158.76900000  * -54.17500000  *
   629       H         73.94100000  *  159.43100000  * -55.61500000  *
   630       H         72.91600000  *  158.00900000  * -55.76200000  *
   631       C         75.84000000  *  158.38200000  * -53.94900000  *
   632       H         75.28100000  *  158.78400000  * -53.13000000  *
   633       H         76.65600000  *  157.75800000  * -53.60500000  *
   634       H         76.26100000  *  159.20400000  * -54.52500000  *
   635       C         73.31400000  *  155.64400000  * -54.85300000  *
   636       O         73.49500000  *  155.22100000  * -55.99400000  *
   637       N         72.19400000  *  155.41200000  * -54.17100000  *
   638       H         72.12500000  *  155.77000000  * -53.22200000  *
   639       C         71.00700000  *  154.74900000  * -54.70800000  *
   640       H         71.25500000  *  154.27500000  * -55.65400000  *
   641       C         70.53900000  *  153.66400000  * -53.73100000  *
   642       H         70.39400000  *  154.11400000  * -52.75000000  *
   643       H         69.56500000  *  153.30100000  * -54.05800000  *
   644       C         71.47100000  *  152.47600000  * -53.59200000  *
   645       C         71.35300000  *  151.38000000  * -54.46900000  *
   646       H         70.62000000  *  151.39600000  * -55.26300000  *
   647       C         72.17900000  *  150.25300000  * -54.31100000  *
   648       H         72.07600000  *  149.40800000  * -54.98000000  *
   649       C         73.13300000  *  150.22000000  * -53.28000000  *
   650       H         73.77000000  *  149.35300000  * -53.15900000  *
   651       C         73.25800000  *  151.31500000  * -52.40700000  *
   652       H         73.98400000  *  151.28200000  * -51.60900000  *
   653       C         72.43400000  *  152.44400000  * -52.56500000  *
   654       H         72.53300000  *  153.28400000  * -51.88900000  *
   655       C         69.88100000  *  155.75900000  * -54.95700000  *
   656       O         69.73200000  *  156.72600000  * -54.20900000  *
   657       N         69.06900000  *  155.54600000  * -55.99600000  *
   658       H         69.22900000  *  154.72100000  * -56.56500000  *
   659       C         67.80900000  *  156.29200000  * -56.16700000  *
   660       H         68.05500000  *  157.34100000  * -56.33400000  *
   661       C         67.04300000  *  155.78400000  * -57.40200000  *
   662       H         66.19000000  *  156.44400000  * -57.56200000  *
   663       H         67.69500000  *  155.84600000  * -58.27500000  *
   664       C         66.53400000  *  154.34000000  * -57.25600000  *
   665       H         67.38900000  *  153.68200000  * -57.09000000  *
   666       H         65.88000000  *  154.27500000  * -56.39000000  *
   667       C         65.72300000  *  153.83200000  * -58.45100000  *
   668       O         65.25800000  *  154.63700000  * -59.29000000  *
   669       O         65.50700000  *  152.60100000  * -58.51400000  *
   670       C         66.94200000  *  156.20300000  * -54.89300000  *
   671       O         66.84800000  *  155.13800000  * -54.28800000  *
   672       N         66.31300000  *  157.29400000  * -54.45100000  *
   673       H         66.37200000  *  158.15500000  * -54.97600000  *
   674       C         65.46100000  *  157.26600000  * -53.25400000  *
   675       H         65.95600000  *  156.66500000  * -52.48900000  *
   676       C         65.32200000  *  158.68500000  * -52.69800000  *
   677       H         66.31700000  *  159.06700000  * -52.47300000  *
   678       H         64.87900000  *  159.32400000  * -53.46300000  *
   679       C         64.48900000  *  158.77400000  * -51.43400000  *
   680       C         63.17400000  *  159.27400000  * -51.47900000  *
   681       H         62.75100000  *  159.61100000  * -52.41600000  *
   682       C         62.39900000  *  159.32700000  * -50.30700000  *
   683       H         61.38800000  *  159.70700000  * -50.34600000  *
   684       C         62.93600000  *  158.87700000  * -49.08800000  *
   685       H         62.33700000  *  158.90300000  * -48.18700000  *
   686       C         64.25300000  *  158.39000000  * -49.04000000  *
   687       H         64.66800000  *  158.04800000  * -48.10500000  *
   688       C         65.02800000  *  158.33500000  * -50.21100000  *
   689       H         66.03600000  *  157.94600000  * -50.17100000  *
   690       C         64.08500000  *  156.63100000  * -53.52400000  *
   691       O         63.44800000  *  156.93100000  * -54.53800000  *
   692       N         63.60200000  *  155.80300000  * -52.59000000  *
   693       H         64.19400000  *  155.58400000  * -51.79400000  *
   694       C         62.22000000  *  155.30700000  * -52.54000000  *
   695       H         61.62100000  *  155.81600000  * -53.29700000  *
   696       C         62.15800000  *  153.79400000  * -52.81000000  *
   697       H         62.90600000  *  153.28500000  * -52.20200000  *
   698       H         61.17800000  *  153.44600000  * -52.48100000  *
   699       C         62.33000000  *  153.42300000  * -54.29500000  *
   700       H         61.97700000  *  154.24200000  * -54.92200000  *
   701       C         63.78800000  *  153.11700000  * -54.63400000  *
   702       H         64.16200000  *  152.32800000  * -53.98600000  *
   703       H         63.87600000  *  152.81700000  * -55.67700000  *
   704       H         64.39500000  *  154.00800000  * -54.48300000  *
   705       C         61.50100000  *  152.18300000  * -54.64100000  *
   706       H         60.45400000  *  152.35400000  * -54.38700000  *
   707       H         61.56300000  *  151.98600000  * -55.70900000  *
   708       H         61.86400000  *  151.31700000  * -54.09100000  *
   709       C         61.59300000  *  155.63400000  * -51.18000000  *
   710       O         62.23900000  *  155.53400000  * -50.14200000  *
   711       N         60.33200000  *  156.05800000  * -51.17900000  *
   712       H         59.85800000  *  156.14300000  * -52.06900000  *
   713       C         59.71600000  *  156.74200000  * -50.03700000  *
   714       H         60.42100000  *  157.49400000  * -49.68200000  *
   715       C         58.46700000  *  157.48700000  * -50.52400000  *
   716       H         57.69600000  *  156.75900000  * -50.77800000  *
   717       H         58.10100000  *  158.10700000  * -49.70700000  *
   718       C         58.69700000  *  158.37300000  * -51.72800000  *
   719       N         58.82000000  *  157.93100000  * -53.05100000  *
   720       C         59.03700000  *  159.03400000  * -53.78900000  *
   721       H         59.17400000  *  159.04600000  * -54.86500000  *
   722       N         59.05700000  *  160.12500000  * -53.00400000  *
   723       H         59.19900000  *  161.07600000  * -53.33200000  *
   724       C         58.84600000  *  159.72900000  * -51.70200000  *
   725       H         58.80700000  *  160.36300000  * -50.82400000  *
   726       C         59.40500000  *  155.86100000  * -48.81200000  *
   727       O         59.22000000  *  156.40600000  * -47.72300000  *
   728       N         59.34800000  *  154.53000000  * -48.95200000  *
   729       H         59.51400000  *  154.13400000  * -49.86800000  *
   730       C         59.00600000  *  153.59800000  * -47.86400000  *
   731       H         59.45500000  *  153.97300000  * -46.94300000  *
   732       C         57.47100000  *  153.59400000  * -47.68200000  *
   733       H         57.15600000  *  154.60900000  * -47.43600000  *
   734       H         56.99000000  *  153.31200000  * -48.62000000  *
   735       C         56.98400000  *  152.65200000  * -46.57000000  *
   736       H         56.84200000  *  151.65400000  * -46.98400000  *
   737       H         57.73800000  *  152.60000000  * -45.78700000  *
   738       C         55.69000000  *  153.12100000  * -45.91600000  *
   739       O         55.69300000  *  153.79300000  * -44.89700000  *
   740       N         54.53900000  *  152.78600000  * -46.45800000  *
   741       H         53.70700000  *  153.11400000  * -45.99100000  *
   742       H         54.50800000  *  152.26200000  * -47.31400000  *
   743       C         59.57000000  *  152.18100000  * -48.10000000  *
   744       O         59.69800000  *  151.73800000  * -49.24000000  *
   745       N         59.90100000  *  151.46400000  * -47.02000000  *
   746       H         59.78200000  *  151.88200000  * -46.11100000  *
   747       C         60.26600000  *  150.03800000  * -47.05000000  *
   748       H         60.59400000  *  149.79000000  * -48.05500000  *
   749       C         61.45900000  *  149.77600000  * -46.11700000  *
   750       H         61.79100000  *  148.74700000  * -46.26400000  *
   751       H         62.28300000  *  150.42900000  * -46.40800000  *
   752       C         61.13200000  *  149.99000000  * -44.63600000  *
   753       O         60.33900000  *  149.19700000  * -44.08500000  *
   754       O         61.68600000  *  150.93800000  * -44.03300000  *
   755       C         59.07500000  *  149.11300000  * -46.71700000  *
   756       O         58.05500000  *  149.54700000  * -46.16500000  *
   757       N         59.19100000  *  147.81900000  * -47.04800000  *
   758       H         60.03800000  *  147.50900000  * -47.52500000  *
   759       C         58.10100000  *  146.88000000  * -46.84100000  *
   760       H         57.21800000  *  147.32500000  * -47.29300000  *
   761       C         58.41200000  *  145.57700000  * -47.59200000  *
   762       H         58.61300000  *  145.80400000  * -48.64400000  *
   763       H         59.28800000  *  145.12100000  * -47.15800000  *
   764       C         57.28700000  *  144.52700000  * -47.51900000  *
   765       H         57.05600000  *  144.28000000  * -46.48700000  *
   766       C         56.00700000  *  145.04400000  * -48.19600000  *
   767       H         56.23500000  *  145.37800000  * -49.20200000  *
   768       H         55.26800000  *  144.24500000  * -48.23100000  *
   769       H         55.59500000  *  145.87000000  * -47.62900000  *
   770       C         57.76800000  *  143.24900000  * -48.17500000  *
   771       H         58.61500000  *  142.85400000  * -47.62000000  *
   772       H         56.97300000  *  142.50400000  * -48.17100000  *
   773       H         58.06400000  *  143.44500000  * -49.20700000  *
   774       C         57.76400000  *  146.61300000  * -45.36900000  *
   775       O         56.60900000  *  146.37600000  * -45.03000000  *
   776       N         58.75700000  *  146.67700000  * -44.48800000  *
   777       H         59.64000000  *  147.08600000  * -44.79000000  *
   778       C         58.49100000  *  146.46700000  * -43.07300000  *
   779       H         57.97900000  *  145.55100000  * -42.87200000  *
   780       C         59.78200000  *  146.47800000  * -42.25400000  *
   781       H         60.44800000  *  145.70000000  * -42.62000000  *
   782       H         60.28600000  *  147.44000000  * -42.35600000  *
   783       C         59.49200000  *  146.22900000  * -40.76500000  *
   784       H         58.94200000  *  147.08300000  * -40.37400000  *
   785       H         58.87100000  *  145.33200000  * -40.67600000  *
   786       C         60.74500000  *  146.03800000  * -39.93500000  *
   787       H         61.36100000  *  145.25900000  * -40.37900000  *
   788       H         61.30800000  *  146.97100000  * -39.90700000  *
   789       C         60.37600000  *  145.60700000  * -38.51700000  *
   790       H         59.98500000  *  144.58900000  * -38.53700000  *
   791       H         61.27900000  *  145.61300000  * -37.90300000  *
   792       N         59.34600000  *  146.53100000  * -37.94700000  *
   793       H         58.44600000  *  146.48100000  * -38.44300000  *
   794       H         59.09000000  *  146.27800000  * -37.00400000  *
   795       H         59.61300000  *  147.50600000  * -37.97800000  *
   796       C         57.55800000  *  147.53800000  * -42.51200000  *
   797       O         56.61300000  *  147.23400000  * -41.78300000  *
   798       N         57.84100000  *  148.81000000  * -42.80900000  *
   799       H         58.67800000  *  148.99300000  * -43.36700000  *
   800       C         57.02300000  *  149.93800000  * -42.34700000  *
   801       H         56.92400000  *  149.87400000  * -41.26200000  *
   802       C         57.73200000  *  151.25600000  * -42.69100000  *
   803       H         58.75700000  *  151.20800000  * -42.31700000  *
   804       H         57.76600000  *  151.37800000  * -43.77400000  *
   805       C         57.03600000  *  152.46700000  * -42.05300000  *
   806       H         56.03800000  *  152.57800000  * -42.47900000  *
   807       H         56.93900000  *  152.30000000  * -40.97900000  *
   808       C         57.83700000  *  153.75600000  * -42.28400000  *
   809       H         58.80900000  *  153.66400000  * -41.79500000  *
   810       H         57.98900000  *  153.90600000  * -43.35400000  *
   811       C         57.07900000  *  154.95400000  * -41.69900000  *
   812       H         56.11600000  *  155.04200000  * -42.21200000  *
   813       H         56.87800000  *  154.75900000  * -40.64200000  *
   814       N         57.84900000  *  156.21600000  * -41.84100000  *
   815       H         58.03200000  *  156.42900000  * -42.81000000  *
   816       H         57.34100000  *  156.99500000  * -41.44700000  *
   817       H         58.73500000  *  156.15800000  * -41.36000000  *
   818       C         55.61200000  *  149.84400000  * -42.92700000  *
   819       O         54.63800000  *  150.08900000  * -42.22200000  *
   820       N         55.49500000  *  149.42600000  * -44.18900000  *
   821       H         56.35000000  *  149.26300000  * -44.71300000  *
   822       C         54.20500000  *  149.26000000  * -44.85200000  *
   823       H         53.62600000  *  150.17500000  * -44.72500000  *
   824       C         54.41000000  *  148.98800000  * -46.34000000  *
   825       H         54.98900000  *  149.80200000  * -46.77700000  *
   826       H         55.00200000  *  148.07700000  * -46.45200000  *
   827       C         53.12600000  *  148.85300000  * -47.10800000  *
   828       C         52.23100000  *  149.92200000  * -47.18600000  *
   829       H         52.46300000  *  150.85600000  * -46.69900000  *
   830       C         51.01500000  *  149.79500000  * -47.88400000  *
   831       H         50.32500000  *  150.62800000  * -47.91800000  *
   832       C         50.69700000  *  148.60300000  * -48.50200000  *
   833       H         49.75200000  *  148.50200000  * -49.02000000  *
   834       C         51.58700000  *  147.52100000  * -48.43200000  *
   835       H         51.33500000  *  146.58300000  * -48.91200000  *
   836       C         52.79500000  *  147.65400000  * -47.73300000  *
   837       H         53.46700000  *  146.81000000  * -47.67200000  *
   838       C         53.37400000  *  148.12200000  * -44.22700000  *
   839       O         52.16900000  *  148.28300000  * -44.00900000  *
   840       N         54.01600000  *  146.98100000  * -43.96600000  *
   841       H         55.00900000  *  146.90600000  * -44.17900000  *
   842       C         53.33800000  *  145.83600000  * -43.34100000  *
   843       H         52.47600000  *  145.52800000  * -43.93400000  *
   844       C         54.29200000  *  144.65000000  * -43.17000000  *
   845       H         55.15800000  *  145.02700000  * -42.63600000  *
   846       H         53.80700000  *  143.89200000  * -42.54700000  *
   847       C         54.73100000  *  144.00400000  * -44.46100000  *
   848       H         53.84700000  *  143.61400000  * -44.95900000  *
   849       H         55.19200000  *  144.69400000  * -45.15000000  *
   850       S         55.79700000  *  142.58100000  * -44.15400000  *
   851       C         57.05400000  *  143.29200000  * -43.18800000  *
   852       H         56.67800000  *  143.65800000  * -42.23500000  *
   853       H         57.80700000  *  142.53400000  * -42.98200000  *
   854       H         57.44300000  *  144.07900000  * -43.80900000  *
   855       C         52.84400000  *  146.26000000  * -41.95900000  *
   856       O         51.68200000  *  146.03200000  * -41.61400000  *
   857       N         53.72600000  *  146.88400000  * -41.17900000  *
   858       H         54.70100000  *  146.95700000  * -41.45300000  *
   859       C         53.34300000  *  147.35100000  * -39.84600000  *
   860       H         53.03400000  *  146.49700000  * -39.23800000  *
   861       C         54.50500000  *  148.07700000  * -39.15700000  *
   862       H         54.94100000  *  148.81500000  * -39.83000000  *
   863       H         54.12400000  *  148.60600000  * -38.28400000  *
   864       C         55.58400000  *  147.11500000  * -38.68500000  *
   865       O         55.26200000  *  145.90900000  * -38.57600000  *
   866       O         56.73300000  *  147.55200000  * -38.41700000  *
   867       C         52.15000000  *  148.27900000  * -39.96300000  *
   868       O         51.20300000  *  148.18000000  * -39.18700000  *
   869       N         52.18300000  *  149.16200000  * -40.95500000  *
   870       H         53.01600000  *  149.23700000  * -41.51800000  *
   871       C         51.08600000  *  150.10000000  * -41.17300000  *
   872       H         50.93100000  *  150.67400000  * -40.25800000  *
   873       C         51.42800000  *  151.06800000  * -42.31500000  *
   874       H         51.45500000  *  150.53900000  * -43.26600000  *
   875       H         50.66000000  *  151.83800000  * -42.36800000  *
   876       H         52.39300000  *  151.53600000  * -42.12800000  *
   877       C         49.78900000  *  149.37000000  * -41.49900000  *
   878       O         48.71100000  *  149.83600000  * -41.15600000  *
   879       N         49.90500000  *  148.22900000  * -42.16400000  *
   880       H         50.83800000  *  147.88500000  * -42.38200000  *
   881       C         48.74000000  *  147.45400000  * -42.57500000  *
   882       H         47.85700000  *  148.08600000  * -42.62800000  *
   883       H         48.90600000  *  147.02300000  * -43.58600000  *
   884       H         48.52600000  *  146.61900000  * -41.88800000  *
   885       H         72.54500000  *  137.05800000  * -55.15200000  *
   886       C         72.38600000  *  137.90500000  * -54.47400000  *
   887       O         73.28300000  *  138.71900000  * -54.28600000  *
   888       N         71.20100000  *  138.01500000  * -53.89800000  *
   889       H         70.47300000  *  137.31400000  * -54.05700000  *
   890       C         70.96800000  *  139.10000000  * -52.94900000  *
   891       H         71.50000000  *  140.00600000  * -53.22900000  *
   892       C         69.47700000  *  139.40500000  * -52.82500000  *
   893       H         69.09300000  *  139.71900000  * -53.79200000  *
   894       H         68.93000000  *  138.50600000  * -52.53300000  *
   895       C         69.17800000  *  140.45400000  * -51.81200000  *
   896       N         69.23000000  *  140.42300000  * -50.45900000  *
   897       C         68.94700000  *  141.69100000  * -50.01400000  *
   898       H         68.96900000  *  142.01200000  * -48.98400000  *
   899       N         68.72400000  *  142.47200000  * -51.05500000  *
   900       H         68.47200000  *  143.44500000  * -51.00700000  *
   901       C         68.85400000  *  141.75000000  * -52.15500000  *
   902       H         68.77100000  *  142.12600000  * -53.16500000  *
   903       C         71.52100000  *  138.65700000  * -51.58300000  *
   904       O         72.28000000  *  139.38000000  * -50.94700000  *
   905       N         71.11400000  *  137.47100000  * -51.14500000  *
   906       H         70.37100000  *  137.01600000  * -51.66500000  *
   907       C         71.55500000  *  136.88000000  * -49.87700000  *
   908       H         71.18200000  *  135.84900000  * -49.87900000  *
   909       C         73.07600000  *  136.85300000  * -49.83700000  *
   910       H         73.53100000  *  137.83300000  * -49.86900000  *
   911       H         73.36600000  *  136.47900000  * -48.85100000  *
   912       C         73.64700000  *  135.85900000  * -50.81700000  *
   913       H         73.29800000  *  134.87100000  * -50.67200000  *
   914       H         73.21600000  *  136.10500000  * -51.78700000  *
   915       C         75.11700000  *  136.08400000  * -50.99900000  *
   916       H         75.61200000  *  135.95400000  * -50.03300000  *
   917       H         75.49500000  *  135.33200000  * -51.69500000  *
   918       N         75.35800000  *  137.42700000  * -51.50600000  *
   919       H         74.62100000  *  138.12700000  * -51.38200000  *
   920       C         76.54800000  *  137.85900000  * -51.89000000  *
   921       N         77.59300000  *  137.04400000  * -51.81500000  *
   922       H         77.44700000  *  136.21200000  * -51.26800000  *
   923       H         78.49900000  *  137.44300000  * -51.92100000  *
   924       N         76.69000000  *  139.09300000  * -52.35600000  *
   925       H         75.86000000  *  139.69200000  * -52.33800000  *
   926       H         77.56200000  *  139.47800000  * -52.67100000  *
   927       C         71.03700000  *  137.42400000  * -48.54200000  *
   928       O         71.18700000  *  136.76800000  * -47.50900000  *
   929       N         70.43700000  *  138.60400000  * -48.51600000  *
   930       H         70.32800000  *  139.16900000  * -49.34700000  *
   931       C         69.93700000  *  139.07600000  * -47.23100000  *
   932       H         69.76500000  *  138.24900000  * -46.54100000  *
   933       C         70.93500000  *  140.04200000  * -46.56200000  *
   934       H         71.90900000  *  139.56600000  * -46.50900000  *
   935       H         71.04400000  *  140.94300000  * -47.17900000  *
   936       C         70.51300000  *  140.42800000  * -45.14700000  *
   937       O         70.17200000  *  139.51500000  * -44.35500000  *
   938       O         70.51000000  *  141.64400000  * -44.82500000  *
   939       C         68.58700000  *  139.73400000  * -47.37800000  *
   940       O         68.35000000  *  140.81000000  * -46.83500000  *
   941       N         67.68700000  *  139.08300000  * -48.11000000  *
   942       H         67.94300000  *  138.20800000  * -48.54500000  *
   943       C         66.35900000  *  139.64900000  * -48.29900000  *
   944       H         66.47700000  *  140.66700000  * -48.65900000  *
   945       C         65.54600000  *  138.81300000  * -49.28800000  *
   946       H         65.58300000  *  137.78400000  * -48.94500000  *
   947       H         64.50600000  *  139.14000000  * -49.25500000  *
   948       C         66.02700000  *  138.85500000  * -50.73600000  *
   949       H         67.06400000  *  138.52800000  * -50.78200000  *
   950       C         65.17300000  *  137.91700000  * -51.58300000  *
   951       H         64.15900000  *  138.30500000  * -51.68800000  *
   952       H         65.63400000  *  137.80700000  * -52.55000000  *
   953       H         65.13400000  *  136.93500000  * -51.11000000  *
   954       C         65.92100000  *  140.27700000  * -51.26400000  *
   955       H         66.42000000  *  140.99600000  * -50.63300000  *
   956       H         66.44200000  *  140.27500000  * -52.20900000  *
   957       H         64.88200000  *  140.56100000  * -51.39700000  *
   958       C         65.59400000  *  139.73400000  * -46.98200000  *
   959       O         65.58600000  *  138.79200000  * -46.16600000  *
   960       N         64.95800000  *  140.85700000  * -46.74400000  *
   961       H         64.96700000  *  141.58800000  * -47.44200000  *
   962       C         64.17400000  *  141.06800000  * -45.54100000  *
   963       H         63.56500000  *  140.17700000  * -45.39400000  *
   964       C         65.05900000  *  141.24300000  * -44.28700000  *
   965       H         64.42600000  *  141.31300000  * -43.40100000  *
   966       H         65.65700000  *  140.34000000  * -44.16600000  *
   967       C         65.99700000  *  142.45700000  * -44.30500000  *
   968       H         66.41700000  *  142.58200000  * -45.30000000  *
   969       H         65.44000000  *  143.35400000  * -44.03600000  *
   970       C         67.14500000  *  142.22100000  * -43.31600000  *
   971       H         66.73900000  *  141.97900000  * -42.33100000  *
   972       H         67.72500000  *  141.36800000  * -43.67500000  *
   973       C         68.05500000  *  143.44800000  * -43.19800000  *
   974       H         68.14800000  *  143.91900000  * -44.18100000  *
   975       H         67.58100000  *  144.17200000  * -42.52500000  *
   976       N         69.39800000  *  143.05800000  * -42.69200000  *
   977       H         69.87700000  *  142.46000000  * -43.38000000  *
   978       H         69.97100000  *  143.87200000  * -42.50900000  *
   979       H         69.31800000  *  142.54200000  * -41.82600000  *
   980       C         63.26900000  *  142.23300000  * -45.83400000  *
   981       O         63.62900000  *  143.07800000  * -46.65400000  *
   982       N         62.11200000  *  142.30300000  * -45.18600000  *
   983       C         61.62600000  *  141.34600000  * -44.17100000  *
   984       H         62.10000000  *  141.53200000  * -43.20900000  *
   985       H         61.74500000  *  140.31100000  * -44.47600000  *
   986       C         60.16400000  *  141.66900000  * -44.09500000  *
   987       H         59.73700000  *  141.34900000  * -43.14300000  *
   988       H         59.63700000  *  141.20600000  * -44.93200000  *
   989       C         60.16000000  *  143.18900000  * -44.24800000  *
   990       H         60.51600000  *  143.64900000  * -43.32100000  *
   991       H         59.20200000  *  143.56500000  * -44.57400000  *
   992       C         61.14500000  *  143.38000000  * -45.40300000  *
   993       H         60.63400000  *  143.20500000  * -46.34500000  *
   994       C         61.77100000  *  144.77100000  * -45.44800000  *
   995       O         61.39200000  *  145.58400000  * -46.27300000  *
   996       N         62.73000000  *  145.09500000  * -44.56200000  *
   997       H         62.97900000  *  144.41200000  * -43.86200000  *
   998       C         63.43400000  *  146.40300000  * -44.54400000  *
   999       H         62.69100000  *  147.20000000  * -44.47800000  *
  1000       C         64.36200000  *  146.50200000  * -43.31900000  *
  1001       H         65.05000000  *  145.65500000  * -43.32000000  *
  1002       H         64.95500000  *  147.41300000  * -43.41000000  *
  1003       C         63.62600000  *  146.56600000  * -41.97600000  *
  1004       H         62.91200000  *  147.39100000  * -42.00500000  *
  1005       H         63.08200000  *  145.63700000  * -41.81600000  *
  1006       C         64.59200000  *  146.76800000  * -40.80800000  *
  1007       O         65.59900000  *  146.08500000  * -40.67400000  *
  1008       N         64.32900000  *  147.69600000  * -39.91400000  *
  1009       H         64.97700000  *  147.81800000  * -39.14900000  *
  1010       H         63.52900000  *  148.30100000  * -40.01300000  *
  1011       C         64.29200000  *  146.68900000  * -45.79500000  *
  1012       O         64.53100000  *  147.84600000  * -46.13500000  *
  1013       N         64.76000000  *  145.64100000  * -46.47700000  *
  1014       H         64.44800000  *  144.72300000  * -46.19100000  *
  1015       C         65.53700000  *  145.70600000  * -47.71600000  *
  1016       H         66.09700000  *  146.64200000  * -47.75000000  *
  1017       C         66.55200000  *  144.53300000  * -47.74600000  *
  1018       H         66.05500000  *  143.60800000  * -47.47000000  *
  1019       H         66.91900000  *  144.40200000  * -48.76200000  *
  1020       C         67.78800000  *  144.72700000  * -46.87600000  *
  1021       O         68.10400000  *  145.81400000  * -46.41900000  *
  1022       N         68.54200000  *  143.67900000  * -46.61800000  *
  1023       H         69.41900000  *  143.82400000  * -46.14700000  *
  1024       H         68.28500000  *  142.73100000  * -46.87900000  *
  1025       C         64.63300000  *  145.71400000  * -48.96800000  *
  1026       O         65.15700000  *  145.63200000  * -50.07700000  *
  1027       N         63.30000000  *  145.80300000  * -48.83400000  *
  1028       H         62.89500000  *  145.87300000  * -47.90900000  *
  1029       C         62.40600000  *  145.84500000  * -49.97900000  *
  1030       H         62.94700000  *  145.74800000  * -50.91900000  *
  1031       C         61.36900000  *  144.72100000  * -49.88900000  *
  1032       H         60.76900000  *  144.86100000  * -48.99200000  *
  1033       H         60.74400000  *  144.79800000  * -50.77200000  *
  1034       C         62.03600000  *  143.32400000  * -49.85900000  *
  1035       H         62.67100000  *  143.24000000  * -48.98800000  *
  1036       C         61.00200000  *  142.26000000  * -49.77100000  *
  1037       H         60.24600000  *  142.42800000  * -50.53400000  *
  1038       H         61.44700000  *  141.27100000  * -49.89000000  *
  1039       H         60.52000000  *  142.31900000  * -48.79800000  *
  1040       C         62.89500000  *  143.12600000  * -51.08400000  *
  1041       H         63.82900000  *  143.66800000  * -50.95600000  *
  1042       H         63.12900000  *  142.06900000  * -51.20900000  *
  1043       H         62.39300000  *  143.49200000  * -51.96600000  *
  1044       C         61.76300000  *  147.21800000  * -49.95200000  *
  1045       O         61.15000000  *  147.60200000  * -48.96600000  *
  1046       N         61.88200000  *  147.97700000  * -51.03400000  *
  1047       H         62.37000000  *  147.60200000  * -51.84200000  *
  1048       C         61.44700000  *  149.37200000  * -51.06700000  *
  1049       H         61.06500000  *  149.67500000  * -50.09500000  *
  1050       C         62.63000000  *  150.27600000  * -51.39600000  *
  1051       H         62.94800000  *  150.08700000  * -52.42200000  *
  1052       H         62.28300000  *  151.30500000  * -51.32000000  *
  1053       C         63.83900000  *  150.08600000  * -50.47300000  *
  1054       H         64.29400000  *  149.11600000  * -50.65700000  *
  1055       C         64.83400000  *  151.17800000  * -50.81100000  *
  1056       H         64.45700000  *  152.13100000  * -50.44800000  *
  1057       H         65.78600000  *  150.94600000  * -50.34400000  *
  1058       H         64.97900000  *  151.25500000  * -51.88300000  *
  1059       C         63.50400000  *  150.20100000  * -48.98700000  *
  1060       H         63.02500000  *  149.29100000  * -48.64000000  *
  1061       H         64.41200000  *  150.34000000  * -48.40300000  *
  1062       H         62.82600000  *  151.03700000  * -48.83000000  *
  1063       C         60.32500000  *  149.56700000  * -52.06900000  *
  1064       O         60.42200000  *  149.11500000  * -53.19800000  *
  1065       N         59.26800000  *  150.25600000  * -51.67700000  *
  1066       H         59.36500000  *  150.76300000  * -50.80000000  *
  1067       C         58.08300000  *  150.44700000  * -52.50800000  *
  1068       H         58.17300000  *  149.92400000  * -53.45700000  *
  1069       C         56.81900000  *  149.90600000  * -51.78600000  *
  1070       H         55.94300000  *  150.08700000  * -52.41500000  *
  1071       C         56.95000000  *  148.40400000  * -51.54300000  *
  1072       H         57.75300000  *  148.18300000  * -50.83300000  *
  1073       H         56.01300000  *  148.00400000  * -51.15200000  *
  1074       H         57.15800000  *  147.91500000  * -52.48900000  *
  1075       C         56.64700000  *  150.60600000  * -50.43300000  *
  1076       H         57.48200000  *  150.38000000  * -49.77500000  *
  1077       H         56.60500000  *  151.68300000  * -50.57600000  *
  1078       C         55.37000000  *  150.22200000  * -49.68600000  *
  1079       H         55.48900000  *  149.24800000  * -49.22200000  *
  1080       H         55.17000000  *  150.96500000  * -48.91000000  *
  1081       H         54.52900000  *  150.16800000  * -50.38500000  *
  1082       C         57.87200000  *  151.93000000  * -52.81700000  *
  1083       O         58.38200000  *  152.79400000  * -52.10000000  *
  1084       N         57.14900000  *  152.22000000  * -53.89700000  *
  1085       H         56.70500000  *  151.48200000  * -54.43300000  *
  1086       C         56.84100000  *  153.60200000  * -54.22700000  *
  1087       H         57.16800000  *  154.27800000  * -53.43100000  *
  1088       C         57.50400000  *  154.05300000  * -55.54100000  *
  1089       H         57.21800000  *  155.07000000  * -55.80500000  *
  1090       H         58.58200000  *  154.04400000  * -55.38800000  *
  1091       C         57.19300000  *  153.14600000  * -56.70100000  *
  1092       O         56.13500000  *  152.53500000  * -56.76400000  *
  1093       N         58.11500000  *  153.07200000  * -57.64100000  *
  1094       H         57.83300000  *  152.61700000  * -58.48600000  *
  1095       H         58.88600000  *  153.71500000  * -57.62100000  *
  1096       C         55.33100000  *  153.75800000  * -54.32100000  *
  1097       O         54.57600000  *  152.79900000  * -54.11400000  *
  1098       N         54.88500000  *  154.97100000  * -54.62100000  *
  1099       H         55.52100000  *  155.73600000  * -54.79200000  *
  1100       C         53.46400000  *  155.24700000  * -54.72300000  *
  1101       H         52.92700000  *  154.82600000  * -53.87200000  *
  1102       C         53.20900000  *  156.78000000  * -54.75500000  *
  1103       H         52.16900000  *  156.98000000  * -55.02600000  *
  1104       C         53.47800000  *  157.39700000  * -53.41000000  *
  1105       H         54.52100000  *  157.25500000  * -53.13000000  *
[...]
 1005  H   0.82956
 1006  C   1.06484   0.79197   0.73994   0.79841
 1007  O   1.87755   1.41174   1.59285   1.81450
 1008  N   1.52684   1.36036   1.38033   1.33044
 1009  H   0.65693
 1010  H   0.66263
 1011  C   1.08413   0.75848   0.78127   0.81347
 1012  O   1.88500   1.66125   1.31087   1.73729
 1013  N   1.55195   1.50493   1.20361   1.30237
 1014  H   0.66490
 1015  C   1.07286   0.94711   1.09565   0.82066
 1016  H   0.80399
 1017  C   1.07040   1.04736   1.09026   1.16512
 1018  H   0.83043
 1019  H   0.79568
 1020  C   1.05950   0.80751   0.76628   0.75469
 1021  O   1.87648   1.77213   1.39762   1.62319
 1022  N   1.53121   1.30813   1.19426   1.58887
 1023  H   0.66625
 1024  H   0.65375
 1025  C   1.08745   0.78523   0.72014   0.85286
 1026  O   1.87880   1.76629   1.61013   1.37959
 1027  N   1.54119   1.12594   1.66522   1.18388
 1028  H   0.65435
 1029  C   1.07009   0.96903   0.98046   0.97410
 1030  H   0.81071
 1031  C   1.06729   1.06413   0.99769   1.17266
 1032  H   0.83757
 1033  H   0.84784
 1034  C   1.04102   1.01212   0.94613   1.06235
 1035  H   0.85596
 1036  C   1.04921   1.12578   1.11847   1.17076
 1037  H   0.84469
 1038  H   0.84863
 1039  H   0.86576
 1040  C   1.05153   1.14117   1.17196   1.09896
 1041  H   0.84511
 1042  H   0.85734
 1043  H   0.84963
 1044  C   1.07632   0.75035   0.84333   0.75544
 1045  O   1.87185   1.53781   1.79705   1.44710
 1046  N   1.54575   1.55869   1.17140   1.24363
 1047  H   0.64527
 1048  C   1.06490   0.98962   0.82486   1.09969
 1049  H   0.81474
 1050  C   1.06496   1.01911   1.10645   1.12864
 1051  H   0.84699
 1052  H   0.83985
 1053  C   1.04819   0.97085   1.06564   0.97240
 1054  H   0.86701
 1055  C   1.05401   1.12850   1.12261   1.16835
 1056  H   0.84449
 1057  H   0.84905
 1058  H   0.86040
 1059  C   1.05441   1.17433   1.18418   1.04286
 1060  H   0.84044
 1061  H   0.85107
 1062  H   0.84642
 1063  C   1.07611   0.79779   0.74371   0.81716
 1064  O   1.86934   1.83056   1.62688   1.33975
 1065  N   1.54240   1.18899   1.47221   1.29543
 1066  H   0.64320
 1067  C   1.07594   0.88933   1.00612   1.04187
 1068  H   0.81014
 1069  C   1.06433   1.01564   0.99281   1.01961
 1070  H   0.85010
 1071  C   1.05463   1.18101   1.03421   1.17658
 1072  H   0.84346
 1073  H   0.84509
 1074  H   0.85335
 1075  C   1.05396   1.06883   1.12005   1.03167
 1076  H   0.84627
 1077  H   0.86109
 1078  C   1.05256   1.09005   1.15718   1.13195
 1079  H   0.84848
 1080  H   0.87792
 1081  H   0.84648
 1082  C   1.08650   0.74230   0.88813   0.74248
 1083  O   1.88678   1.56829   1.57658   1.55704
 1084  N   1.54299   1.50743   1.14378   1.33788
 1085  H   0.64335
 1086  C   1.06233   0.97221   0.88460   1.03710
 1087  H   0.80512
 1088  C   1.07261   1.18114   1.12844   1.02403
 1089  H   0.80897
 1090  H   0.80454
 1091  C   1.06079   0.76167   0.77065   0.82337
 1092  O   1.88012   1.35545   1.56910   1.83577
 1093  N   1.53415   1.29765   1.49491   1.27225
 1094  H   0.67168
 1095  H   0.66508
 1096  C   1.08297   0.88477   0.75956   0.71351
 1097  O   1.88781   1.65381   1.46808   1.58835
 1098  N   1.54017   1.14538   1.19755   1.67210
 1099  H   0.66328
 1100  C   1.08558   0.83695   1.05846   1.08282
 1101  H   0.80368
 1102  C   1.08429   0.99187   0.86666   0.88980
 1103  H   0.84650
 1104  C   1.05381   1.18354   1.18043   1.05454
 1105  H   0.84174
 1106  H   0.82407
 1107  H   0.82929
 1108  O   1.84883   1.59218   1.82289   1.34525
 1109  H   0.64248
 1110  C   1.07325   0.78894   0.75538   0.82402
 1111  O   1.87784   1.27990   1.68906   1.84883
 1112  N   1.53329   1.19338   1.53448   1.21097
 1113  H   0.66723
 1114  C   1.05709   1.15379   1.13345   0.89306
 1115  H   0.83537
 1116  H   0.83773
 1117  H   0.83540
 1118  H   0.83946
 1119  C   1.10510   0.75488   0.73533   0.91357
 1120  O   1.88313   1.71066   1.59663   1.48266
 1121  N   1.54487   1.42796   1.34587   1.20806
 1122  H   0.65352
 1123  C   1.08072   0.93103   1.08437   0.93161
 1124  H   0.80959
 1125  C   1.07316   1.07910   0.95382   0.98246
 1126  H   0.84383
 1127  C   1.05810   1.18720   1.08398   1.12933
 1128  H   0.84351
 1129  H   0.84836
 1130  H   0.85193
 1131  C   1.05414   1.07591   1.13433   1.01868
 1132  H   0.85362
 1133  H   0.85501
 1134  C   1.04918   1.14379   1.15109   1.09042
 1135  H   0.84979
 1136  H   0.85991
 1137  H   0.84939
 1138  C   1.07232   0.84164   0.73660   0.77778
 1139  O   1.87777   1.89032   1.52064   1.39054
 1140  N   1.54470   1.10292   1.52662   1.33539
 1141  H   0.63278
 1142  C   1.06985   0.84604   1.05357   1.03780
 1143  H   0.81783
 1144  C   1.06015   1.09252   1.04642   1.09634
 1145  H   0.83596
 1146  H   0.84659
 1147  C   1.05106   1.08581   1.04423   1.07802
 1148  H   0.84964
 1149  H   0.84428
 1150  C   1.05938   1.08231   1.05523   1.09795
 1151  H   0.84190
 1152  H   0.83262
 1153  C   1.07896   1.02179   0.99717   1.07421
 1154  H   0.81095
 1155  H   0.83292
 1156  N   1.45914   1.23107   1.22868   1.25602
 1157  H   0.69646
 1158  H   0.70025
 1159  H   0.68567
 1160  C   1.07835   0.77974   0.75022   0.82538
 1161  O   1.88106   1.77255   1.69301   1.29084
 1162  N   1.54483   1.32872   1.42531   1.23097
 1163  H   0.64024
 1164  C   1.07006   0.91782   0.95694   1.02933
 1165  H   0.83171
 1166  C   1.06279   1.10028   1.01938   1.13276
 1167  H   0.83516
 1168  H   0.84478
 1169  C   1.05374   1.07056   0.96083   0.96367
 1170  H   0.85950
 1171  C   1.06223   1.16620   1.13942   1.09204
 1172  H   0.85184
 1173  H   0.84903
 1174  H   0.85262
 1175  C   1.05740   1.18286   1.13706   1.08863
 1176  H   0.85366
 1177  H   0.84805
 1178  H   0.85416
 1179  C   1.08551   0.79100   0.79750   0.75754
 1180  O   1.88036   1.63743   1.60067   1.54146
 1181  N   1.54387   1.36012   1.44291   1.16081
 1182  H   0.64614
 1183  C   1.06703   0.91074   0.92803   1.05201
 1184  H   0.82748
 1185  C   1.05929   1.16810   1.08142   1.15568
 1186  H   0.82223
 1187  H   0.83219
 1188  H   0.82792
 1189  C   1.08814   0.78433   0.78504   0.74806
 1190  O   1.87108   1.83518   1.36233   1.60377
 1191  N   1.54662   1.17663   1.31492   1.49836
 1192  H   0.67187
 1193  C   1.07527   0.88366   1.07649   0.93047
 1194  H   0.81752
 1195  C   1.07941   1.14612   1.17571   1.01629
 1196  H   0.80875
 1197  H   0.83270
 1198  C   1.07068   0.73337   0.73745   0.69136
 1199  O   1.88780   1.73888   1.43583   1.66655
 1200  O   1.87087   1.75109   1.48424   1.77377
 1201  C   1.09000   0.81763   0.79595   0.74791
 1202  O   1.88731   1.28456   1.80196   1.57753
 1203  N   1.56686   1.29117   1.17098   1.53711
 1204  H   0.68088
 1205  C   1.07989   1.02200   0.91705   0.95320
 1206  H   0.83920
 1207  C   1.05569   1.07749   1.20231   0.96296
 1208  H   0.81438
 1209  H   0.81926
 1210  C   1.07470   0.97390   0.97724   0.96995
 1211  C   1.09009   1.04116   1.04127   1.01378
 1212  H   0.83936
 1213  C   1.08868   0.98526   1.06180   1.01033
 1214  H   0.84210
 1215  C   1.08742   1.05974   0.99149   1.03205
 1216  H   0.84775
 1217  C   1.08917   1.03684   1.03622   0.98997
 1218  H   0.83295
 1219  C   1.08716   0.98653   1.06414   1.02388
 1220  H   0.83898
 1221  C   1.08866   0.80283   0.77373   0.76412
 1222  O   1.88521   1.44437   1.55990   1.71456
 1223  N   1.53933   1.41498   1.43660   1.13559
 1224  H   0.68271
 1225  C   1.06847   0.98746   1.06754   0.98204
 1226  H   0.81244
 1227  H   0.80708
 1228  C   1.07958   0.82858   0.77887   0.70608
 1229  O   1.87670   1.84134   1.32572   1.61371
 1230  N   1.55750   1.29732   1.23309   1.44600
 1231  H   0.67306
 1232  C   1.07737   0.89843   1.03242   0.96724
 1233  H   0.83453
 1234  C   1.06793   1.11219   0.95095   1.17590
 1235  H   0.83648
 1236  H   0.83019
 1237  C   1.05173   1.03298   0.96045   1.00914
 1238  H   0.86304
 1239  C   1.05601   1.16742   1.06737   1.16500
 1240  H   0.85782
 1241  H   0.84528
 1242  H   0.85507
 1243  C   1.05565   1.17053   1.18854   1.04761
 1244  H   0.84168
 1245  H   0.84243
 1246  H   0.85811
 1247  C   1.09519   0.85731   0.76487   0.72426
 1248  O   1.88109   1.32559   1.78556   1.59485
 1249  N   1.58229   1.28180   1.23406   1.52152
 1250  H   0.66054
 1251  C   1.06829   0.96387   0.99701   0.95507
 1252  H   0.83637
 1253  C   1.05864   1.14009   1.09760   1.17428
 1254  H   0.84405
 1255  H   0.81072
 1256  H   0.81014
 1257  C   1.07601   0.83424   0.75180   0.78126
 1258  O   1.88388   1.49991   1.60002   1.64960
 1259  N   1.54296   1.31120   1.51243   1.14422
 1260  H   0.67603
 1261  C   1.06248   0.92441   1.14574   1.10582
 1262  H   0.82652
 1263  H   0.82977
 1264  H   0.83905
 1265  H   0.84167
 1266  C   1.10460   0.72501   0.79421   0.87715
 1267  O   1.88383   1.53324   1.36203   1.88326
 1268  N   1.54274   1.48713   1.35112   1.14838
 1269  H   0.67721
 1270  C   1.07285   1.11768   0.96745   0.82220
 1271  H   0.80337
 1272  C   1.05783   1.09116   1.02702   1.14972
 1273  H   0.83524
 1274  H   0.82214
 1275  C   1.06422   0.97681   0.94922   0.96739
 1276  C   1.08263   1.02000   0.99366   1.05811
 1277  H   0.84042
 1278  C   1.08210   1.04740   1.02780   0.99875
 1279  H   0.84581
 1280  C   1.08106   1.00757   1.05592   1.02605
 1281  H   0.85041
 1282  C   1.08045   1.02486   1.00370   1.05518
 1283  H   0.85492
 1284  C   1.08313   1.05828   1.02559   0.99540
 1285  H   0.83972
 1286  C   1.08056   0.76598   0.78596   0.79871
 1287  O   1.88386   1.53924   1.68035   1.53377
 1288  N   1.53678   1.17677   1.34783   1.43191
 1289  H   0.67155
 1290  C   1.05817   1.14203   0.97733   0.99771
 1291  H   0.81376
 1292  H   0.78698
 1293  C   1.07320   0.78210   0.75129   0.80198
 1294  O   1.87223   1.55543   1.39913   1.84077
 1295  N   1.53475   1.40648   1.37186   1.17593
 1296  H   0.64833
 1297  C   1.07483   1.00357   1.20112   0.87828
 1298  H   0.80880
 1299  H   0.79347
 1300  C   1.08126   0.77437   0.74555   0.80730
 1301  O   1.88286   1.52196   1.53282   1.73162
 1302  N   1.56533   1.44471   1.16717   1.26725
 1303  C   1.07055   1.06986   0.86715   1.05583
 1304  H   0.83589
 1305  H   0.83892
 1306  C   1.05732   1.04569   1.13997   1.05919
 1307  H   0.84679
 1308  H   0.80351
 1309  C   1.06104   1.08286   0.98327   1.17208
 1310  H   0.83525
 1311  H   0.81964
 1312  C   1.07345   1.05216   1.00116   0.86772
 1313  H   0.81337
 1314  C   1.08830   0.76348   0.76812   0.82866
 1315  O   1.88393   1.42716   1.43551   1.88341
 1316  N   1.54314   1.40350   1.48391   1.11757
 1317  H   0.64360
 1318  C   1.08219   1.04959   1.11420   0.89125
 1319  H   0.80078
 1320  H   0.78743
 1321  C   1.08833   0.82552   0.73019   0.77831
 1322  O   1.88490   1.70331   1.72961   1.32961
 1323  N   1.55110   1.23214   1.41121   1.34487
 1324  H   0.68809
 1325  C   1.07568   0.86035   1.06409   0.97843
 1326  H   0.82196
 1327  C   1.05962   1.16890   1.07548   0.97645
 1328  H   0.83472
 1329  H   0.83912
 1330  C   1.05816   1.13854   1.07485   1.02375
 1331  H   0.82454
 1332  H   0.87161
 1333  C   1.06376   1.08742   1.09997   0.78145
 1334  H   0.85052
 1335  H   0.81928
 1336  N   1.53281   1.62701   1.28988   1.09338
 1337  H   0.64879
 1338  C   0.97600   0.83628   0.80287   0.79450
 1339  N   1.50147   1.56331   1.25851   1.24812
 1340  H   0.67467
 1341  H   0.62638
 1342  N   1.50407   1.55700   1.35354   1.14118
 1343  H   0.64454
 1344  H   0.63722
 1345  C   1.08278   0.75725   0.77365   0.84408
 1346  O   1.88770   1.48014   1.64671   1.56771
 1347  N   1.54259   1.54557   1.19723   1.23931
 1348  H   0.67299
 1349  C   1.08980   1.00066   1.01015   0.92105
 1350  H   0.80184
 1351  C   1.08626   0.93170   0.92703   0.87792
 1352  H   0.85103
 1353  C   1.05853   1.09819   1.12832   1.20522
 1354  H   0.82410
 1355  H   0.83285
 1356  H   0.83126
 1357  O   1.84296   1.58299   1.64075   1.56928
 1358  H   0.62613
 1359  C   1.07907   0.81340   0.79152   0.76304
 1360  O   1.88746   1.53692   1.79119   1.36942
 1361  N   1.55263   1.32717   1.29593   1.37688
 1362  H   0.65271
 1363  C   1.07404   0.98866   0.92720   0.99340
 1364  H   0.81726
 1365  C   1.05787   1.09563   1.06853   1.08717
 1366  H   0.84082
 1367  H   0.82671
 1368  C   1.06127   0.97208   0.97528   1.05896
 1369  C   1.08283   0.97267   1.07877   0.99011
 1370  H   0.84479
 1371  C   1.08081   1.07844   0.99597   1.02249
 1372  H   0.81325
 1373  C   1.06653   0.82769   0.89513   0.90969
 1374  O   1.84136   1.46778   1.53990   1.69575
 1375  H   0.63536
 1376  C   1.07366   0.99019   1.09246   1.07118
 1377  H   0.84705
 1378  C   1.08183   1.06414   0.99860   0.99390
 1379  H   0.85870
 1380  C   1.08203   0.77633   0.73405   0.82105
 1381  O   1.88476   1.39044   1.55600   1.82932
 1382  N   1.55035   1.20053   1.60178   1.14815
 1383  H   0.66114
 1384  C   1.08718   1.11704   1.03462   0.83741
 1385  H   0.82132
 1386  C   1.08253   0.83221   0.89074   1.00027
 1387  H   0.86859
 1388  C   1.05718   1.09864   1.14105   1.18955
 1389  H   0.83081
 1390  H   0.84580
 1391  H   0.84160
 1392  O   1.84703   1.32383   1.76623   1.66674
 1393  H   0.61665
 1394  C   1.08208   0.82828   0.76380   0.79218
 1395  O   1.88734   1.29183   1.70625   1.67730
 1396  N   1.54293   1.22802   1.27095   1.47582
 1397  H   0.64940
 1398  C   1.07063   0.98404   1.04048   1.07622
 1399  H   0.84403
 1400  H   0.80879
 1401  C   1.07032   0.85080   0.72021   0.75159
 1402  O   1.88499   1.70084   1.45749   1.55933
 1403  N   1.55352   1.14750   1.51371   1.33248
 1404  H   0.68019
 1405  C   1.07070   0.82924   0.98751   1.12922
 1406  H   0.81414
 1407  C   1.05319   1.16388   0.98899   1.05142
 1408  H   0.84002
 1409  H   0.83566
 1410  C   1.05983   1.20565   1.01202   1.13847
 1411  H   0.84343
 1412  H   0.82590
 1413  C   1.06665   0.72253   0.72049   0.72886
 1414  O   1.88746   1.47120   1.82297   1.63827
 1415  O   1.88494   1.51893   1.58545   1.81455
 1416  C   1.08683   0.77113   0.86264   0.75458
 1417  O   1.88731   1.64854   1.65312   1.40969
 1418  N   1.54582   1.31025   1.19190   1.47838
 1419  H   0.65307
 1420  C   1.07214   1.06279   0.88126   1.00763
 1421  H   0.84382
 1422  C   1.05448   1.01861   1.03221   0.97076
 1423  H   0.83599
 1424  C   1.05593   1.17744   1.04886   1.19329
 1425  H   0.84550
 1426  H   0.83582
 1427  H   0.83790
 1428  C   1.05457   1.18133   1.16768   1.06155
 1429  H   0.84064
 1430  H   0.83984
 1431  H   0.85211
 1432  C   1.07566   0.77104   0.73160   0.84208
 1433  O   1.88365   1.36363   1.63742   1.76949
 1434  N   1.53829   1.27320   1.47280   1.21103
 1435  H   0.66902
 1436  C   1.07705   1.00723   1.05474   0.86797
 1437  H   0.82286
 1438  C   1.06064   1.02670   1.01605   0.97679
 1439  H   0.84071
 1440  C   1.05418   1.18415   1.09819   1.12131
 1441  H   0.84083
 1442  H   0.84087
 1443  H   0.85074
 1444  C   1.05738   1.18955   1.16686   1.05263
 1445  H   0.84602
 1446  H   0.83570
 1447  H   0.83880
 1448  C   1.08143   0.80655   0.78638   0.75134
 1449  O   1.88316   1.81155   1.47331   1.46046
 1450  N   1.53605   1.23676   1.43122   1.31666
 1451  H   0.66420
 1452  C   1.07955   0.90453   0.96840   1.14814
 1453  H   0.80530
 1454  C   1.07978   0.93496   0.82432   0.98354
 1455  H   0.86583
 1456  C   1.05747   1.09530   1.13596   1.19609
 1457  H   0.82496
 1458  H   0.82215
 1459  H   0.84136
 1460  O   1.84753   1.47797   1.49403   1.78195
 1461  H   0.64853
 1462  C   1.07073   0.75395   0.82639   0.79815
 1463  O   1.88060   1.50668   1.88244   1.36381
 1464  N   1.53718   1.55071   1.12175   1.29446
 1465  H   0.65727
 1466  C   1.05405   1.16771   0.87314   1.13563
 1467  H   0.83028
 1468  H   0.83711
 1469  H   0.85139
 1470  H   0.82723
 1471  C   1.10849   0.72191   0.77562   0.90302
 1472  O   1.87917   1.50027   1.39725   1.89105
 1473  N   1.54807   1.50770   1.35867   1.13684
 1474  H   0.67059
 1475  C   1.07820   1.08321   1.04083   0.80204
 1476  H   0.80368
 1477  C   1.05901   1.13421   0.99955   1.10164
 1478  H   0.81859
 1479  H   0.82218
 1480  C   1.06595   0.97591   0.99309   1.00560
 1481  C   1.08232   0.99075   1.02470   1.00447
 1482  H   0.83765
 1483  C   1.07635   1.10513   1.04991   1.06633
 1484  H   0.82034
 1485  C   1.07257   0.88647   0.88192   0.87963
 1486  O   1.83869   1.35504   1.61294   1.73274
 1487  H   0.61909
 1488  C   1.07845   0.98857   1.10008   1.09722
 1489  H   0.82124
 1490  C   1.08818   1.07866   0.97866   0.96879
 1491  H   0.83501
 1492  C   1.08084   0.79995   0.76889   0.79200
 1493  O   1.88630   1.81383   1.69955   1.28033
 1494  N   1.53470   1.25582   1.50886   1.18462
 1495  H   0.67091
 1496  C   1.06143   0.92033   1.08958   1.16683
 1497  H   0.83434
 1498  H   0.82968
 1499  H   0.83846
 1500  H   0.82484
 1501  C   1.10804   0.78633   0.88373   0.71616
 1502  O   1.88011   1.43049   1.87065   1.50910
 1503  N   1.55068   1.37512   1.18533   1.44526
 1504  H   0.64441
 1505  C   1.07866   0.96574   0.86325   1.12906
 1506  H   0.81494
 1507  C   1.05976   0.97995   0.99667   1.07645
 1508  H   0.84636
 1509  C   1.05207   1.15825   1.06267   1.17607
 1510  H   0.84450
 1511  H   0.84466
 1512  H   0.84169
 1513  C   1.04783   0.99985   1.12969   1.08495
 1514  H   0.86679
 1515  H   0.85351
 1516  C   1.04903   1.11616   1.12951   1.14938
 1517  H   0.85884
 1518  H   0.85735
 1519  H   0.84115
 1520  C   1.07241   0.85958   0.73797   0.75026
 1521  O   1.87627   1.57601   1.55599   1.67380
 1522  N   1.54217   1.18499   1.41742   1.37462
 1523  H   0.66203
 1524  C   1.07135   0.87894   1.16328   1.10828
 1525  H   0.84317
 1526  H   0.83224
 1527  H   0.83416
 1528  H   0.82768
 1529  C   1.10757   0.84807   0.73308   0.82095
 1530  O   1.88534   1.81635   1.62619   1.36660
 1531  N   1.53783   1.25350   1.40314   1.30540
 1532  H   0.64785
 1533  C   1.05911   0.89154   1.04084   1.02421
 1534  H   0.81935
 1535  C   1.06066   1.03222   1.11459   1.11483
 1536  H   0.82476
 1537  H   0.84738
 1538  C   1.04449   0.99032   0.96332   1.05969
 1539  H   0.88032
 1540  C   1.05454   1.16296   1.06801   1.18082
 1541  H   0.83815
 1542  H   0.84795
 1543  H   0.85374
 1544  C   1.05258   1.12355   1.17240   1.10862
 1545  H   0.85753
 1546  H   0.84726
 1547  H   0.84111
 1548  C   1.07857   0.72953   0.86461   0.77483
 1549  O   1.88184   1.57593   1.45134   1.73539
 1550  N   1.54009   1.57259   1.21276   1.19376
 1551  H   0.66084
 1552  C   1.07181   1.01988   0.93486   0.96147
 1553  H   0.81171
 1554  C   1.05664   1.17059   1.07921   0.99187
 1555  H   0.82428
 1556  H   0.82654
 1557  C   1.05682   1.13004   1.08806   1.03637
 1558  H   0.85319
 1559  H   0.82407
 1560  C   1.06363   1.15816   0.94488   0.90196
 1561  H   0.81629
 1562  H   0.83553
 1563  N   1.52416   1.16146   1.42474   1.39818
 1564  H   0.63975
 1565  C   0.99143   0.79128   0.81236   0.81838
 1566  N   1.51720   1.11636   1.46805   1.48664
 1567  H   0.65574
 1568  H   0.63929
 1569  N   1.50867   1.25121   1.39992   1.41138
 1570  H   0.64201
 1571  H   0.64047
 1572  C   1.08185   0.87205   0.77157   0.74481
 1573  O   1.88743   1.60830   1.59959   1.52807
 1574  N   1.53977   1.17457   1.27149   1.51553
 1575  H   0.65711
 1576  C   1.07434   0.85671   1.08639   1.03866
 1577  H   0.82178
 1578  C   1.06141   1.16435   1.09832   0.98406
 1579  H   0.84188
 1580  H   0.83857
 1581  C   1.04762   1.08142   0.96008   0.94850
 1582  H   0.86908
 1583  C   1.05592   1.17151   1.16296   1.07733
 1584  H   0.85455
 1585  H   0.86129
 1586  H   0.84662
 1587  C   1.05676   1.15779   1.09258   1.15821
 1588  H   0.85086
 1589  H   0.86071
 1590  H   0.84604
 1591  C   1.08289   0.71489   0.76180   0.70281
 1592  O   1.88400   1.46753   1.86966   1.62344
 1593  O   1.88767   1.54693   1.59351   1.80272

 **********************
 *                    *
 * JOB ENDED NORMALLY *
 *                    *
 **********************



 TOTAL JOB TIME:          2957.05 SECONDS

 == MOPAC DONE ==
