 *******************************************************************************
 **                                                                           **
 **                              MOPAC v23.2.2                                **
 **                                                                           **
 *******************************************************************************
 **          Digital Object Identifier (DOI): 10.5281/zenodo.6511958          **
 **    Visit the DOI location for information on how to cite this program.    **
 *******************************************************************************

                              PM7 CALCULATION RESULTS

 *******************************************************************************
 *  CALCULATION DONE: (MAX THREADS = 24)             Thu Jan 22 22:56:21 2026  *
 *  PM7        - The PM7 Hamiltonian to be used
 *
 *
 *
 *                 CHARGE ON SYSTEM = +2
 *
 *
 *
 *  EPS=78.4   - USE ANDREAS KLAMT'S COSMO IMPLICIT SOLVATION MODEL
 *  XYZ        - CARTESIAN COORDINATE SYSTEM TO BE USED
 *  1SCF       - DO 1 SCF AND THEN STOP 
 *  T=         - A TIME OF 172800.0 SECONDS REQUESTED
 *  DUMP=N     - RESTART FILE WRITTEN EVERY 7200.0 SECONDS REQUESTED
 *******************************************************************************
PM7 1SCF XYZ CHARGE=2 EPS=78.4


   ATOM   CHEMICAL          X               Y               Z
  NUMBER   SYMBOL      (ANGSTROMS)     (ANGSTROMS)     (ANGSTROMS)

     1       H         71.69100000  *  165.23700000  * -45.36000000  *
     2       C         70.72700000  *  165.64400000  * -45.02500000  *
     3       O         70.67100000  *  166.69300000  * -44.40000000  *
     4       N         69.64800000  *  164.94600000  * -45.35400000  *
     5       H         69.74300000  *  164.08600000  * -45.86500000  *
     6       C         68.31800000  *  165.37700000  * -44.95100000  *
     7       H         68.30400000  *  166.44500000  * -44.75000000  *
     8       C         67.27900000  *  165.08100000  * -46.05800000  *
     9       H         67.27200000  *  164.02200000  * -46.29800000  *
    10       C         65.89200000  *  165.46600000  * -45.59200000  *
    11       H         65.46400000  *  166.22900000  * -46.24500000  *
    12       H         65.23700000  *  164.60600000  * -45.62700000  *
    13       H         65.87600000  *  165.89500000  * -44.58400000  *
    14       C         67.63700000  *  165.85600000  * -47.31700000  *
    15       H         68.59400000  *  165.52900000  * -47.70800000  *
    16       H         66.87900000  *  165.66900000  * -48.07700000  *
    17       H         67.68800000  *  166.92100000  * -47.10100000  *
    18       C         67.91500000  *  164.66400000  * -43.65700000  *
    19       O         67.55300000  *  165.30600000  * -42.67600000  *
    20       N         67.98400000  *  163.33800000  * -43.65800000  *
    21       H         68.28400000  *  162.85200000  * -44.48600000  *
    22       C         67.62300000  *  162.54400000  * -42.48700000  *
    23       H         67.90600000  *  163.07600000  * -41.58100000  *
    24       C         66.12800000  *  162.23500000  * -42.45900000  *
    25       H         65.92600000  *  161.47400000  * -43.20900000  *
    26       H         65.88500000  *  161.80700000  * -41.48800000  *
    27       C         65.21300000  *  163.39800000  * -42.74000000  *
    28       H         65.33100000  *  164.15700000  * -41.96400000  *
    29       H         65.45900000  *  163.81400000  * -43.69700000  *
    30       C         63.76600000  *  162.97200000  * -42.82400000  *
    31       O         63.44700000  *  162.11400000  * -43.67900000  *
    32       O         62.94800000  *  163.49400000  * -42.03400000  *
    33       C         68.34700000  *  161.22200000  * -42.57700000  *
    34       O         68.73000000  *  160.78800000  * -43.66100000  *
    35       N         68.52400000  *  160.57500000  * -41.43500000  *
    36       H         68.03000000  *  160.89100000  * -40.60600000  *
    37       C         69.17300000  *  159.28200000  * -41.42100000  *
    38       H         69.95100000  *  159.22100000  * -42.17800000  *
    39       C         69.75600000  *  159.01000000  * -40.03200000  *
    40       H         70.21900000  *  159.94300000  * -39.71800000  *
    41       H         68.96300000  *  158.79100000  * -39.31600000  *
    42       C         70.79800000  *  157.89600000  * -39.98300000  *
    43       H         70.31100000  *  156.94100000  * -40.17400000  *
    44       H         71.53800000  *  158.07300000  * -40.76900000  *
    45       C         71.50100000  *  157.83200000  * -38.61800000  *
    46       H         70.74900000  *  157.59000000  * -37.86000000  *
    47       H         72.23100000  *  157.01800000  * -38.63800000  *
    48       C         72.18600000  *  159.16200000  * -38.26900000  *
    49       H         72.83200000  *  159.42500000  * -39.10900000  *
    50       H         71.41200000  *  159.93100000  * -38.15600000  *
    51       N         73.00000000  *  159.10500000  * -37.02500000  *
    52       H         73.70000000  *  158.37000000  * -37.07400000  *
    53       H         73.43800000  *  159.98800000  * -36.79300000  *
    54       H         72.39100000  *  158.85400000  * -36.25100000  *
    55       C         68.06200000  *  158.28700000  * -41.74800000  *
    56       O         67.16300000  *  158.08100000  * -40.94600000  *
    57       N         68.07000000  *  157.71900000  * -42.95700000  *
    58       H         68.88500000  *  157.87500000  * -43.52900000  *
    59       C         67.07700000  *  156.73200000  * -43.43100000  *
    60       H         66.10000000  *  157.21800000  * -43.47100000  *
    61       C         67.43800000  *  156.24500000  * -44.85700000  *
    62       H         68.52000000  *  156.27400000  * -44.96900000  *
    63       C         66.99100000  *  154.81100000  * -45.18100000  *
    64       H         65.91200000  *  154.72000000  * -45.06600000  *
    65       H         67.27800000  *  154.57100000  * -46.19800000  *
    66       H         67.48700000  *  154.08400000  * -44.54000000  *
    67       C         66.82600000  *  157.22500000  * -45.86900000  *
    68       H         65.73900000  *  157.13100000  * -45.86400000  *
    69       H         67.07400000  *  158.22500000  * -45.53100000  *
    70       C         67.33200000  *  157.06000000  * -47.30900000  *
    71       H         66.94300000  *  156.14600000  * -47.75000000  *
    72       H         66.99400000  *  157.90200000  * -47.90800000  *
    73       H         68.41900000  *  157.03200000  * -47.32500000  *
    74       C         66.92700000  *  155.56500000  * -42.45700000  *
    75       O         65.81000000  *  155.18400000  * -42.10300000  *
    76       N         68.05300000  *  154.97700000  * -42.05700000  *
    77       H         68.94100000  *  155.34300000  * -42.38000000  *
    78       C         68.05700000  *  153.71400000  * -41.33700000  *
    79       H         67.43300000  *  153.80900000  * -40.44700000  *
    80       H         67.63900000  *  152.93300000  * -41.97300000  *
    81       C         69.45400000  *  153.28700000  * -40.92100000  *
    82       O         70.45400000  *  153.56800000  * -41.58800000  *
    83       N         69.50200000  *  152.57700000  * -39.80200000  *
    84       H         68.63300000  *  152.38500000  * -39.32400000  *
    85       C         70.70600000  *  151.94400000  * -39.28700000  *
    86       H         71.55200000  *  152.60400000  * -39.47600000  *
    87       C         70.56200000  *  151.76400000  * -37.76700000  *
    88       H         69.69500000  *  151.13800000  * -37.55200000  *
    89       H         71.45700000  *  151.27700000  * -37.40400000  *
    90       C         70.43600000  *  153.10700000  * -37.02700000  *
    91       H         71.29900000  *  153.72500000  * -37.28400000  *
    92       H         69.53900000  *  153.63100000  * -37.36400000  *
    93       C         70.35900000  *  152.92700000  * -35.50200000  *
    94       O         69.48800000  *  152.17300000  * -35.01100000  *
    95       O         71.14400000  *  153.58100000  * -34.77600000  *
    96       C         70.93700000  *  150.62700000  * -40.05200000  *
    97       O         70.19400000  *  149.65800000  * -39.88300000  *
    98       N         71.87800000  *  150.64300000  * -41.00300000  *
    99       H         72.49600000  *  151.44100000  * -41.06300000  *
   100       C         71.94100000  *  149.67400000  * -42.10400000  *
   101       H         70.92700000  *  149.39900000  * -42.39500000  *
   102       H         72.40300000  *  150.16900000  * -42.95800000  *
   103       C         72.71900000  *  148.38100000  * -41.83100000  *
   104       O         73.15800000  *  148.08600000  * -40.72100000  *
   105       N         72.91100000  *  147.59700000  * -42.89400000  *
   106       H         72.47000000  *  147.85400000  * -43.76800000  *
   107       C         73.66500000  *  146.32400000  * -42.90200000  *
   108       H         73.41500000  *  145.75700000  * -42.00500000  *
   109       C         73.25300000  *  145.49100000  * -44.12500000  *
   110       H         73.98100000  *  144.69900000  * -44.30500000  *
   111       C         71.88500000  *  144.85900000  * -43.90700000  *
   112       H         71.12800000  *  145.63300000  * -43.76500000  *
   113       H         71.62800000  *  144.24800000  * -44.77200000  *
   114       H         71.93900000  *  144.21700000  * -43.02800000  *
   115       O         73.17600000  *  146.33100000  * -45.25000000  *
   116       H         72.80800000  *  145.79500000  * -45.99300000  *
   117       C         75.18800000  *  146.47700000  * -42.91500000  *
   118       O         75.87000000  *  145.64800000  * -42.31900000  *
   119       N         75.71200000  *  147.53100000  * -43.55300000  *
   120       H         75.06000000  *  148.11500000  * -44.05000000  *
   121       C         77.15400000  *  147.76800000  * -43.78100000  *
   122       H         77.74200000  *  147.07800000  * -43.17300000  *
   123       C         77.47800000  *  147.49000000  * -45.26200000  *
   124       H         76.85500000  *  148.12100000  * -45.89600000  *
   125       H         78.51700000  *  147.75900000  * -45.45700000  *
   126       C         77.31800000  *  146.04400000  * -45.67400000  *
   127       C         78.34200000  *  145.13500000  * -45.35900000  *
   128       H         79.23600000  *  145.47600000  * -44.85300000  *
   129       C         78.19700000  *  143.77800000  * -45.68400000  *
   130       H         78.98800000  *  143.09200000  * -45.42700000  *
   131       C         77.02000000  *  143.32300000  * -46.31800000  *
   132       O         76.85000000  *  142.00200000  * -46.57200000  *
   133       H         77.49600000  *  141.48300000  * -46.05800000  *
   134       C         76.00700000  *  144.24100000  * -46.66300000  *
   135       H         75.10400000  *  143.89300000  * -47.14300000  *
   136       C         76.16300000  *  145.60300000  * -46.34700000  *
   137       H         75.38000000  *  146.30300000  * -46.60200000  *
   138       C         77.62500000  *  149.18700000  * -43.40800000  *
   139       O         78.75100000  *  149.57100000  * -43.72200000  *
   140       N         76.77400000  *  149.97900000  * -42.75300000  *
   141       H         75.88200000  *  149.60600000  * -42.46400000  *
   142       C         77.01600000  *  151.39000000  * -42.45200000  *
   143       H         77.58300000  *  151.47700000  * -41.52800000  *
   144       H         77.60900000  *  151.82900000  * -43.24500000  *
   145       C         75.70800000  *  152.16700000  * -42.30300000  *
   146       O         74.65700000  *  151.56600000  * -42.06000000  *
   147       N         75.75500000  *  153.49500000  * -42.44900000  *
   148       H         76.58800000  *  153.89400000  * -42.85900000  *
   149       C         74.59200000  *  154.32600000  * -42.21200000  *
   150       H         73.82600000  *  153.78000000  * -41.65800000  *
   151       C         74.95900000  *  155.54800000  * -41.37000000  *
   152       H         75.70700000  *  156.13900000  * -41.89300000  *
   153       C         73.73100000  *  156.40900000  * -41.13300000  *
   154       H         72.94300000  *  155.80300000  * -40.68200000  *
   155       H         73.98600000  *  157.21200000  * -40.45000000  *
   156       H         73.36800000  *  156.84900000  * -42.06500000  *
   157       C         75.54500000  *  155.09600000  * -40.05300000  *
   158       H         76.46000000  *  154.52800000  * -40.19800000  *
   159       H         75.77700000  *  155.95300000  * -39.42300000  *
   160       H         74.80500000  *  154.48400000  * -39.53200000  *
   161       C         74.01900000  *  154.79200000  * -43.53700000  *
   162       O         74.76100000  *  155.18400000  * -44.43700000  *
   163       N         72.70000000  *  154.64400000  * -43.68100000  *
   164       H         72.16500000  *  154.29300000  * -42.89400000  *
   165       C         71.93400000  *  155.10600000  * -44.84200000  *
   166       H         72.60500000  *  155.17900000  * -45.69500000  *
   167       C         70.79400000  *  154.13400000  * -45.21700000  *
   168       H         69.95300000  *  154.28700000  * -44.54100000  *
   169       C         70.32900000  *  154.41600000  * -46.65100000  *
   170       H         71.14400000  *  154.24900000  * -47.35400000  *
   171       H         69.50000000  *  153.75600000  * -46.90900000  *
   172       H         69.99300000  *  155.44700000  * -46.74500000  *
   173       C         71.19100000  *  152.65600000  * -45.12100000  *
   174       H         72.09000000  *  152.47400000  * -45.70200000  *
   175       H         71.36700000  *  152.38400000  * -44.08000000  *
   176       H         70.37600000  *  152.03500000  * -45.49600000  *
   177       C         71.36500000  *  156.48800000  * -44.53500000  *
   178       O         70.65300000  *  156.63800000  * -43.53900000  *
   179       N         71.62500000  *  157.49000000  * -45.37400000  *
   180       H         72.23900000  *  157.32200000  * -46.16900000  *
   181       C         71.01800000  *  158.79600000  * -45.21900000  *
   182       H         70.37900000  *  158.84300000  * -44.33800000  *
   183       C         72.10000000  *  159.86100000  * -45.06900000  *
   184       H         72.79900000  *  159.78100000  * -45.90500000  *
   185       H         71.63400000  *  160.84400000  * -45.14300000  *
   186       C         72.87100000  *  159.84300000  * -43.76800000  *
   187       C         72.34700000  *  160.43100000  * -42.61900000  *
   188       H         71.37700000  *  160.90600000  * -42.66800000  *
   189       C         73.06400000  *  160.45200000  * -41.42500000  *
   190       H         72.63300000  *  160.94600000  * -40.56800000  *
   191       C         74.33000000  *  159.87400000  * -41.37100000  *
   192       O         75.04700000  *  159.90100000  * -40.18700000  *
   193       H         74.69700000  *  160.54100000  * -39.56800000  *
   194       C         74.87500000  *  159.27800000  * -42.50300000  *
   195       H         75.78500000  *  158.71900000  * -42.41900000  *
   196       C         74.14000000  *  159.26700000  * -43.69600000  *
   197       H         74.51800000  *  158.73300000  * -44.56500000  *
   198       C         70.16700000  *  159.17400000  * -46.42900000  *
   199       O         70.41800000  *  158.72400000  * -47.55600000  *
   200       N         69.02600000  *  159.82900000  * -46.21300000  *
   201       H         68.83400000  *  160.13100000  * -45.26400000  *
   202       C         68.29500000  *  160.50800000  * -47.28300000  *
   203       H         68.28700000  *  159.90500000  * -48.19300000  *
   204       C         66.84800000  *  160.83200000  * -46.85600000  *
   205       H         66.33100000  *  159.91400000  * -46.59500000  *
   206       H         66.86300000  *  161.47500000  * -45.97300000  *
   207       C         66.03700000  *  161.51100000  * -47.97100000  *
   208       H         66.50700000  *  162.45400000  * -48.25000000  *
   209       H         66.01100000  *  160.85500000  * -48.84300000  *
   210       C         64.60200000  *  161.78400000  * -47.49300000  *
   211       H         64.14500000  *  160.84700000  * -47.16900000  *
   212       H         64.63500000  *  162.46900000  * -46.64500000  *
   213       C         63.75800000  *  162.39400000  * -48.62000000  *
   214       H         64.27900000  *  163.27500000  * -49.01100000  *
   215       H         63.68100000  *  161.66000000  * -49.43000000  *
   216       N         62.40100000  *  162.78000000  * -48.14800000  *
   217       H         62.44900000  *  163.47900000  * -47.42100000  *
   218       H         61.84900000  *  163.17200000  * -48.90000000  *
   219       H         61.89700000  *  161.98700000  * -47.77700000  *
   220       C         69.10200000  *  161.76300000  * -47.51000000  *
   221       O         69.33400000  *  162.49600000  * -46.55100000  *
   222       N         69.55500000  *  162.00600000  * -48.72500000  *
   223       H         69.34400000  *  161.34200000  * -49.46700000  *
   224       C         70.34900000  *  163.18200000  * -49.01700000  *
   225       H         70.22500000  *  163.93500000  * -48.24000000  *
   226       C         71.81400000  *  162.79200000  * -49.07000000  *
   227       H         71.97800000  *  162.06700000  * -49.86400000  *
   228       H         72.42900000  *  163.67700000  * -49.23900000  *
   229       H         72.10500000  *  162.33200000  * -48.12600000  *
   230       C         69.94400000  *  163.83800000  * -50.32200000  *
   231       O         69.22100000  *  163.25100000  * -51.12800000  *
   232       N         70.40700000  *  165.06400000  * -50.52400000  *
   233       H         70.93200000  *  165.53000000  * -49.79600000  *
   234       C         70.10800000  *  165.77900000  * -51.74600000  *
   235       H         69.54100000  *  165.15900000  * -52.44400000  *
   236       H         69.52200000  *  166.69100000  * -51.53000000  *
   237       H         71.05900000  *  166.04700000  * -52.23900000  *
   238       H         68.08600000  *  164.80700000  * -56.55000000  *
   239       C         68.21200000  *  164.39600000  * -55.53600000  *
   240       O         69.28600000  *  164.50800000  * -54.94200000  *
   241       N         67.13500000  *  163.82300000  * -55.01100000  *
   242       H         66.34000000  *  163.66800000  * -55.61500000  *
   243       C         67.13600000  *  163.21200000  * -53.68800000  *
   244       H         67.86300000  *  163.70700000  * -53.05000000  *
   245       C         65.75500000  *  163.32300000  * -53.02900000  *
   246       H         64.97700000  *  163.06900000  * -53.75000000  *
   247       C         65.64800000  *  162.36600000  * -51.85200000  *
   248       H         66.47200000  *  162.51800000  * -51.15200000  *
   249       H         64.69700000  *  162.53800000  * -51.34700000  *
   250       H         65.65200000  *  161.33900000  * -52.20000000  *
   251       C         65.54000000  *  164.75000000  * -52.56600000  *
   252       H         65.62600000  *  165.42400000  * -53.41600000  *
   253       H         64.53500000  *  164.85100000  * -52.15900000  *
   254       H         66.28400000  *  165.00300000  * -51.81000000  *
   255       C         67.52600000  *  161.76000000  * -53.84700000  *
   256       O         66.97900000  *  161.02800000  * -54.68200000  *
   257       N         68.49600000  *  161.34900000  * -53.04800000  *
   258       H         68.91100000  *  161.99700000  * -52.39100000  *
   259       C         69.01100000  *  159.99200000  * -53.10200000  *
   260       H         68.34600000  *  159.34100000  * -53.67900000  *
   261       C         70.37400000  *  159.97400000  * -53.81600000  *
   262       H         70.77500000  *  158.96500000  * -53.87500000  *
   263       C         70.21400000  *  160.50700000  * -55.21300000  *
   264       H         69.95700000  *  161.56600000  * -55.19000000  *
   265       H         71.15100000  *  160.39100000  * -55.75600000  *
   266       H         69.44200000  *  159.95000000  * -55.73600000  *
   267       C         71.37900000  *  160.85000000  * -53.05700000  *
   268       H         71.56500000  *  160.44500000  * -52.06400000  *
   269       H         72.31500000  *  160.84900000  * -53.61300000  *
   270       H         71.03600000  *  161.88400000  * -52.98400000  *
   271       C         69.19200000  *  159.37200000  * -51.72900000  *
   272       O         69.02000000  *  160.03600000  * -50.68600000  *
   273       N         69.38900000  *  158.06000000  * -51.70800000  *
   274       H         69.47000000  *  157.57000000  * -52.59500000  *
   275       C         69.75900000  *  157.31700000  * -50.52000000  *
   276       H         69.47100000  *  157.87000000  * -49.62800000  *
   277       C         69.00500000  *  155.99400000  * -50.50800000  *
   278       H         69.23300000  *  155.43900000  * -51.41500000  *
   279       H         69.29800000  *  155.40600000  * -49.63700000  *
   280       H         67.93500000  *  156.19100000  * -50.46300000  *
   281       C         71.27800000  *  157.14000000  * -50.54000000  *
   282       O         71.81600000  *  156.46200000  * -51.42100000  *
   283       N         71.97000000  *  157.79100000  * -49.60300000  *
   284       H         71.44500000  *  158.28300000  * -48.88900000  *
   285       C         73.41300000  *  157.73400000  * -49.53500000  *
   286       H         73.80300000  *  157.43200000  * -50.50200000  *
   287       C         73.96100000  *  159.11400000  * -49.18200000  *
   288       H         73.49200000  *  159.84000000  * -49.85100000  *
   289       H         73.62800000  *  159.35800000  * -48.16900000  *
   290       C         75.47300000  *  159.31600000  * -49.26600000  *
   291       H         75.96900000  *  158.63700000  * -48.57100000  *
   292       C         75.94900000  *  159.02000000  * -50.68400000  *
   293       H         75.44100000  *  159.71800000  * -51.34800000  *
   294       H         77.02400000  *  159.18800000  * -50.76300000  *
   295       H         75.74700000  *  157.98700000  * -50.96800000  *
   296       C         75.80400000  *  160.74000000  * -48.87900000  *
   297       H         75.43700000  *  160.94600000  * -47.87600000  *
   298       H         76.88200000  *  160.87900000  * -48.92200000  *
   299       H         75.32000000  *  161.42900000  * -49.57600000  *
   300       C         73.82100000  *  156.71600000  * -48.48500000  *
   301       O         73.39600000  *  156.78100000  * -47.33400000  *
   302       N         74.64400000  *  155.75100000  * -48.88700000  *
   303       H         74.88500000  *  155.73400000  * -49.87600000  *
   304       C         75.13300000  *  154.63500000  * -48.06600000  *
   305       H         74.61100000  *  154.60800000  * -47.10800000  *
   306       C         74.85900000  *  153.33100000  * -48.85000000  *
   307       H         74.40400000  *  153.57900000  * -49.81100000  *
   308       H         75.79400000  *  152.81500000  * -49.07000000  *
   309       C         73.90800000  *  152.33800000  * -48.17900000  *
   310       H         73.04200000  *  152.86900000  * -47.78500000  *
   311       H         73.55100000  *  151.66900000  * -48.96200000  *
   312       C         74.58900000  *  151.51700000  * -47.06900000  *
   313       H         75.62200000  *  151.29500000  * -47.34200000  *
   314       H         74.61000000  *  152.11200000  * -46.15300000  *
   315       C         73.84900000  *  150.19300000  * -46.80600000  *
   316       H         74.26500000  *  149.74400000  * -45.89800000  *
   317       H         72.79400000  *  150.41400000  * -46.60800000  *
   318       N         73.97700000  *  149.24300000  * -47.95200000  *
   319       H         74.94100000  *  148.99400000  * -48.14200000  *
   320       H         73.46800000  *  148.36300000  * -47.78900000  *
   321       H         73.57900000  *  149.62900000  * -48.80000000  *
   322       C         76.62400000  *  154.84700000  * -47.79800000  *
   323       O         77.41800000  *  154.68100000  * -48.71500000  *
   324       N         77.01700000  *  155.22600000  * -46.58100000  *
   325       H         76.29800000  *  155.26800000  * -45.86500000  *
   326       C         78.42200000  *  155.28900000  * -46.15900000  *
   327       H         79.06600000  *  155.59300000  * -46.98900000  *
   328       C         78.56700000  *  156.26000000  * -44.97900000  *
   329       H         78.02700000  *  155.87500000  * -44.10900000  *
   330       H         79.62500000  *  156.33900000  * -44.73000000  *
   331       C         78.01500000  *  157.64300000  * -45.34000000  *
   332       H         78.45100000  *  157.95800000  * -46.27300000  *
   333       H         76.93600000  *  157.57500000  * -45.50000000  *
   334       C         78.25100000  *  158.72500000  * -44.27900000  *
   335       H         77.97800000  *  159.68000000  * -44.73200000  *
   336       H         77.56000000  *  158.53300000  * -43.46900000  *
   337       C         79.67700000  *  158.85000000  * -43.70900000  *
   338       H         80.38400000  *  158.36300000  * -44.39700000  *
   339       H         79.95000000  *  159.91100000  * -43.68600000  *
   340       N         79.78800000  *  158.26900000  * -42.33500000  *
   341       H         79.63700000  *  157.26100000  * -42.37000000  *
   342       H         80.69600000  *  158.42600000  * -41.93200000  *
   343       H         79.10400000  *  158.64600000  * -41.70100000  *
   344       C         78.82300000  *  153.89100000  * -45.72900000  *
   345       O         78.09100000  *  153.31500000  * -44.93700000  *
   346       N         79.90700000  *  153.32000000  * -46.24700000  *
   347       H         80.40500000  *  153.76400000  * -47.01000000  *
   348       C         80.34300000  *  152.02200000  * -45.76800000  *
   349       H         79.49500000  *  151.49800000  * -45.35900000  *
   350       C         80.94400000  *  151.18600000  * -46.89500000  *
   351       H         81.78600000  *  151.78200000  * -47.16900000  *
   352       C         81.42400000  *  149.85200000  * -46.34500000  *
   353       H         80.65600000  *  149.35200000  * -45.75200000  *
   354       H         81.67900000  *  149.19900000  * -47.17900000  *
   355       H         82.34500000  *  149.95700000  * -45.76100000  *
   356       C         79.89700000  *  150.97600000  * -47.99700000  *
   357       H         79.60200000  *  151.87000000  * -48.50000000  *
   358       H         80.28300000  *  150.30500000  * -48.75000000  *
   359       C         78.59100000  *  150.36100000  * -47.52600000  *
   360       H         78.17700000  *  150.90100000  * -46.69000000  *
   361       H         77.89400000  *  150.33700000  * -48.36300000  *
   362       H         78.77100000  *  149.33300000  * -47.20900000  *
   363       C         81.33300000  *  152.07100000  * -44.61400000  *
   364       O         82.16700000  *  152.98000000  * -44.51900000  *
   365       N         81.21100000  *  151.07100000  * -43.74300000  *
   366       H         80.50300000  *  150.36100000  * -43.92800000  *
   367       C         82.04400000  *  150.90200000  * -42.55200000  *
   368       H         81.47500000  *  151.18100000  * -41.66300000  *
   369       H         82.35800000  *  149.86100000  * -42.45900000  *
   370       H         82.94700000  *  151.51400000  * -42.62000000  *
   371       H         81.25700000  *  144.04600000  * -57.89900000  *
   372       C         80.50000000  *  144.84100000  * -57.88800000  *
   373       O         79.71500000  *  144.99000000  * -58.82400000  *
   374       N         80.49900000  *  145.60300000  * -56.79700000  *
   375       H         81.28000000  *  145.52500000  * -56.16600000  *
   376       C         79.57000000  *  146.70600000  * -56.61200000  *
   377       H         78.57500000  *  146.34400000  * -56.42300000  *
   378       C         80.00500000  *  147.61000000  * -55.44200000  *
   379       H         80.89800000  *  148.18000000  * -55.68500000  *
   380       C         78.90600000  *  148.60800000  * -55.12500000  *
   381       H         77.92000000  *  148.14100000  * -55.17600000  *
   382       H         79.04500000  *  148.98700000  * -54.11600000  *
   383       H         78.93800000  *  149.43600000  * -55.83300000  *
   384       C         80.32100000  *  146.76200000  * -54.20900000  *
   385       H         81.19200000  *  146.13400000  * -54.40600000  *
   386       H         80.59400000  *  147.42200000  * -53.38900000  *
   387       C         79.18400000  *  145.87900000  * -53.76500000  *
   388       H         78.77800000  *  145.31100000  * -54.59400000  *
   389       H         79.50900000  *  145.12200000  * -53.06500000  *
   390       H         78.38800000  *  146.48300000  * -53.33500000  *
   391       C         79.54300000  *  147.54500000  * -57.87900000  *
   392       O         78.48200000  *  147.77900000  * -58.45100000  *
   393       N         80.72300000  *  147.98900000  * -58.30900000  *
   394       H         81.55800000  *  147.70100000  * -57.81200000  *
   395       C         80.85900000  *  148.80400000  * -59.51100000  *
   396       H         80.33900000  *  149.74600000  * -59.38600000  *
   397       H         81.92800000  *  148.98500000  * -59.72900000  *
   398       H         80.37800000  *  148.32200000  * -60.38100000  *
   399       H         78.96400000  *  146.08700000  * -61.65600000  *
   400       C         77.87300000  *  146.08700000  * -61.51600000  *
   401       O         77.11500000  *  145.89500000  * -62.46400000  *
   402       N         77.44600000  *  146.31800000  * -60.28000000  *
   403       H         78.13400000  *  146.42500000  * -59.54900000  *
   404       C         76.02800000  *  146.35200000  * -59.94500000  *
   405       H         75.53300000  *  145.47600000  * -60.35900000  *
   406       C         75.84100000  *  146.37400000  * -58.43100000  *
   407       H         76.20500000  *  147.30400000  * -58.01800000  *
   408       H         74.76300000  *  146.35700000  * -58.24200000  *
   409       C         76.47200000  *  145.22200000  * -57.65900000  *
   410       H         77.55000000  *  145.23900000  * -57.74900000  *
   411       C         76.08000000  *  145.34100000  * -56.19200000  *
   412       H         74.99900000  *  145.23000000  * -56.07700000  *
   413       H         76.57300000  *  144.55300000  * -55.62900000  *
   414       H         76.38500000  *  146.30900000  * -55.80100000  *
   415       C         75.99600000  *  143.89000000  * -58.23600000  *
   416       H         76.41500000  *  143.73000000  * -59.22900000  *
   417       H         76.32800000  *  143.07800000  * -57.59100000  *
   418       H         74.90500000  *  143.87400000  * -58.30500000  *
   419       C         75.32200000  *  147.55900000  * -60.54800000  *
   420       O         74.09500000  *  147.56800000  * -60.66200000  *
   421       N         76.08400000  *  148.63100000  * -60.82900000  *
   422       H         77.08200000  *  148.53500000  * -60.67700000  *
   423       C         75.60100000  *  149.83300000  * -61.53400000  *
   424       H         74.83700000  *  150.33500000  * -60.94100000  *
   425       H         76.43800000  *  150.53300000  * -61.75900000  *
   426       H         75.13800000  *  149.54900000  * -62.49200000  *
   427       H         62.79000000  *  145.77200000  * -59.27600000  *
   428       C         63.71000000  *  145.72000000  * -58.67500000  *
   429       O         63.77900000  *  145.02200000  * -57.66400000  *
   430       N         64.72400000  *  146.45200000  * -59.11400000  *
   431       H         64.63800000  *  147.05100000  * -59.92700000  *
   432       C         65.97100000  *  146.53500000  * -58.38100000  *
   433       H         65.88400000  *  146.09200000  * -57.38600000  *
   434       C         67.11600000  *  145.87700000  * -59.11400000  *
   435       H         67.33600000  *  146.42600000  * -60.03000000  *
   436       C         68.35100000  *  145.87800000  * -58.21400000  *
   437       H         68.14700000  *  145.31400000  * -57.31800000  *
   438       H         69.21000000  *  145.44500000  * -58.72400000  *
   439       H         68.64100000  *  146.89000000  * -57.94500000  *
   440       C         66.72800000  *  144.44400000  * -59.47800000  *
   441       H         66.54900000  *  143.87300000  * -58.56400000  *
   442       H         65.81500000  *  144.42400000  * -60.06800000  *
   443       C         67.77400000  *  143.72700000  * -60.29600000  *
   444       H         68.68300000  *  143.57700000  * -59.72200000  *
   445       H         67.37700000  *  142.75300000  * -60.59800000  *
   446       H         68.02300000  *  144.31300000  * -61.18000000  *
   447       C         66.29500000  *  148.01000000  * -58.22000000  *
   448       O         66.21200000  *  148.78000000  * -59.18400000  *
   449       N         66.55900000  *  148.43500000  * -56.98200000  *
   450       H         66.62600000  *  147.75000000  * -56.23400000  *
   451       C         66.90100000  *  149.82800000  * -56.67400000  *
   452       H         66.08300000  *  150.47300000  * -56.98900000  *
   453       C         67.11200000  *  150.01300000  * -55.16400000  *
   454       H         67.89800000  *  149.33700000  * -54.82400000  *
   455       C         67.50400000  *  151.44400000  * -54.78500000  *
   456       H         66.67600000  *  152.12500000  * -54.97400000  *
   457       H         67.75400000  *  151.47600000  * -53.72600000  *
   458       H         68.37100000  *  151.77300000  * -55.35300000  *
   459       C         65.82200000  *  149.69300000  * -54.40800000  *
   460       H         65.53900000  *  148.65300000  * -54.53700000  *
   461       H         65.99100000  *  149.86700000  * -53.35400000  *
   462       H         65.01300000  *  150.32800000  * -54.76300000  *
   463       C         68.15600000  *  150.21600000  * -57.45100000  *
   464       O         69.18800000  *  149.54900000  * -57.33100000  *
   465       N         68.08000000  *  151.28300000  * -58.25100000  *
   466       H         67.22500000  *  151.80400000  * -58.24500000  *
   467       C         69.18900000  *  151.69800000  * -59.08000000  *
   468       H         69.52500000  *  150.81900000  * -59.63900000  *
   469       C         68.73700000  *  152.76800000  * -60.08300000  *
   470       H         67.83400000  *  152.41100000  * -60.57900000  *
   471       H         68.47700000  *  153.68100000  * -59.53700000  *
   472       C         69.79100000  *  153.06900000  * -61.13100000  *
   473       H         70.72100000  *  153.35000000  * -60.64200000  *
   474       H         69.97400000  *  152.16800000  * -61.71600000  *
   475       C         69.35100000  *  154.17900000  * -62.08100000  *
   476       H         68.50200000  *  153.81400000  * -62.66100000  *
   477       H         69.02300000  *  155.05600000  * -61.52200000  *
   478       C         70.49800000  *  154.55900000  * -63.02400000  *
   479       H         71.33900000  *  154.89000000  * -62.40800000  *
   480       H         70.81900000  *  153.66100000  * -63.56600000  *
   481       N         70.11800000  *  155.62600000  * -63.99700000  *
   482       H         69.74700000  *  156.41600000  * -63.48300000  *
   483       H         70.92600000  *  155.93300000  * -64.52500000  *
   484       H         69.41500000  *  155.27800000  * -64.63600000  *
   485       C         70.36000000  *  152.21400000  * -58.25300000  *
   486       O         70.19400000  *  153.07400000  * -57.38700000  *
   487       N         71.53700000  *  151.64500000  * -58.50700000  *
   488       H         71.59600000  *  150.90400000  * -59.18600000  *
   489       C         72.75000000  *  152.07400000  * -57.83600000  *
   490       H         72.53800000  *  152.52600000  * -56.87100000  *
   491       C         73.72700000  *  150.91100000  * -57.67000000  *
   492       H         73.31500000  *  150.22100000  * -56.93700000  *
   493       H         73.77900000  *  150.36900000  * -58.62000000  *
   494       C         75.16700000  *  151.27300000  * -57.28800000  *
   495       H         75.65500000  *  151.80300000  * -58.10000000  *
   496       C         75.18300000  *  152.16500000  * -56.05900000  *
   497       H         74.60800000  *  151.72100000  * -55.25200000  *
   498       H         76.21000000  *  152.29600000  * -55.73500000  *
   499       H         74.78900000  *  153.14000000  * -56.31200000  *
   500       C         75.93300000  *  149.99400000  * -57.01300000  *
   501       H         75.98300000  *  149.42100000  * -57.93300000  *
   502       H         76.94600000  *  150.24200000  * -56.71200000  *
   503       H         75.43500000  *  149.41000000  * -56.23200000  *
   504       C         73.31900000  *  153.11300000  * -58.79500000  *
   505       O         73.76900000  *  152.77900000  * -59.89700000  *
   506       N         73.26700000  *  154.36900000  * -58.37800000  *
   507       H         72.92600000  *  154.57000000  * -57.44900000  *
   508       C         73.73400000  *  155.46600000  * -59.19700000  *
   509       H         73.47500000  *  155.26500000  * -60.23600000  *
   510       C         73.02500000  *  156.74200000  * -58.76000000  *
   511       H         73.45000000  *  157.06300000  * -57.80900000  *
   512       H         73.23600000  *  157.53300000  * -59.48700000  *
   513       C         71.51300000  *  156.60300000  * -58.58700000  *
   514       H         71.27400000  *  155.80900000  * -57.88500000  *
   515       C         70.97400000  *  157.88000000  * -58.01900000  *
   516       H         71.37000000  *  158.74600000  * -58.56000000  *
   517       H         69.88800000  *  157.89100000  * -58.09300000  *
   518       H         71.22100000  *  157.96000000  * -56.96600000  *
   519       C         70.85100000  *  156.29000000  * -59.92300000  *
   520       H         71.28300000  *  155.39700000  * -60.34200000  *
   521       H         69.78900000  *  156.14400000  * -59.75100000  *
   522       H         71.00300000  *  157.12700000  * -60.60700000  *
   523       C         75.24500000  *  155.67800000  * -59.15800000  *
   524       O         75.83900000  *  156.04700000  * -60.17600000  *
   525       N         75.86200000  *  155.44600000  * -57.99600000  *
   526       H         75.29500000  *  155.17900000  * -57.20400000  *
   527       C         77.30800000  *  155.64700000  * -57.82900000  *
   528       H         77.80800000  *  155.40400000  * -58.76600000  *
   529       C         77.60000000  *  157.11700000  * -57.51900000  *
   530       H         76.91700000  *  157.54400000  * -56.80300000  *
   531       H         78.58200000  *  157.17000000  * -57.04800000  *
   532       C         77.65600000  *  157.97500000  * -58.75600000  *
   533       O         78.67800000  *  157.91700000  * -59.48300000  *
   534       O         76.67400000  *  158.70400000  * -59.00000000  *
   535       C         77.97900000  *  154.81700000  * -56.73400000  *
   536       O         77.37100000  *  154.52100000  * -55.70400000  *
   537       N         79.24700000  *  154.47700000  * -56.96600000  *
   538       H         79.69800000  *  154.82400000  * -57.79800000  *
   539       C         80.06100000  *  153.73800000  * -56.00300000  *
   540       H         79.55400000  *  153.69900000  * -55.05200000  *
   541       C         80.36600000  *  152.29800000  * -56.50400000  *
   542       H         79.42700000  *  151.75200000  * -56.56200000  *
   543       C         80.98100000  *  152.34300000  * -57.88400000  *
   544       H         82.06600000  *  152.43300000  * -57.82100000  *
   545       H         80.74600000  *  151.41400000  * -58.37900000  *
   546       H         80.59600000  *  153.14500000  * -58.51000000  *
   547       C         81.29900000  *  151.58800000  * -55.53900000  *
   548       H         80.81100000  *  151.54900000  * -54.57200000  *
   549       H         81.47300000  *  150.57200000  * -55.87800000  *
   550       H         82.25900000  *  152.09200000  * -55.44900000  *
   551       C         81.36500000  *  154.53600000  * -55.81000000  *
   552       O         82.27000000  *  154.48900000  * -56.64700000  *
   553       N         81.45200000  *  155.28200000  * -54.71000000  *
   554       H         80.67600000  *  155.30400000  * -54.06400000  *
   555       C         82.62100000  *  156.11100000  * -54.44300000  *
   556       H         83.20500000  *  156.21800000  * -55.35800000  *
   557       H         82.32200000  *  157.12800000  * -54.14500000  *
   558       H         83.29700000  *  155.73900000  * -53.65600000  *
   559       H         84.58000000  *  155.17100000  * -47.07300000  *
   560       C         84.22500000  *  154.98400000  * -48.09100000  *
   561       O         84.63900000  *  155.65900000  * -49.04200000  *
   562       N         83.35800000  *  153.99100000  * -48.22200000  *
   563       H         83.13600000  *  153.42800000  * -47.41700000  *
   564       C         82.77600000  *  153.65100000  * -49.50600000  *
   565       H         83.37000000  *  154.04700000  * -50.31700000  *
   566       C         82.71900000  *  152.14000000  * -49.66000000  *
   567       H         83.74000000  *  151.87500000  * -49.95700000  *
   568       H         82.64400000  *  151.54600000  * -48.78400000  *
   569       C         81.82600000  *  151.61900000  * -50.77900000  *
   570       H         80.79100000  *  151.88400000  * -50.58700000  *
   571       C         82.25800000  *  152.23100000  * -52.09200000  *
   572       H         83.31100000  *  152.49100000  * -52.08900000  *
   573       H         82.09300000  *  151.51300000  * -52.88400000  *
   574       H         81.65400000  *  153.10900000  * -52.31200000  *
   575       C         81.89900000  *  150.09400000  * -50.82200000  *
   576       H         81.91300000  *  149.66400000  * -49.82700000  *
   577       H         81.05200000  *  149.70600000  * -51.39100000  *
   578       H         82.82500000  *  149.80300000  * -51.32100000  *
   579       C         81.36700000  *  154.23200000  * -49.54800000  *
   580       O         80.51800000  *  153.85700000  * -48.74500000  *
   581       N         81.13100000  *  155.16100000  * -50.46700000  *
   582       H         81.84500000  *  155.34800000  * -51.16200000  *
   583       C         79.82200000  *  155.78100000  * -50.60800000  *
   584       H         79.27400000  *  155.67000000  * -49.68700000  *
   585       C         79.96700000  *  157.27800000  * -50.86800000  *
   586       H         80.42300000  *  157.50400000  * -51.79700000  *
   587       H         78.95400000  *  157.66400000  * -50.98900000  *
   588       C         80.57600000  *  158.04300000  * -49.72300000  *
   589       C         79.79300000  *  158.48000000  * -48.65600000  *
   590       H         78.73500000  *  158.25400000  * -48.66900000  *
   591       C         80.35600000  *  159.18600000  * -47.59400000  *
   592       H         79.75300000  *  159.56200000  * -46.79700000  *
   593       C         81.71600000  *  159.45200000  * -47.58700000  *
   594       O         82.27600000  *  160.12500000  * -46.52100000  *
   595       H         83.20600000  *  160.30800000  * -46.74500000  *
   596       C         82.51400000  *  159.02600000  * -48.63700000  *
   597       H         83.58200000  *  159.23300000  * -48.65000000  *
   598       C         81.94100000  *  158.32800000  * -49.69800000  *
   599       H         82.57400000  *  157.98100000  * -50.50200000  *
   600       C         79.04800000  *  155.15800000  * -51.76500000  *
   601       O         79.54400000  *  155.08000000  * -52.88800000  *
   602       N         77.86200000  *  154.62400000  * -51.49600000  *
   603       H         77.53500000  *  154.64800000  * -50.53500000  *
   604       C         76.98200000  *  154.05400000  * -52.51400000  *
   605       H         77.50700000  *  154.00400000  * -53.46100000  *
   606       C         76.55300000  *  152.62100000  * -52.15600000  *
   607       H         75.87100000  *  152.66200000  * -51.31600000  *
   608       H         76.00300000  *  152.21700000  * -53.00700000  *
   609       C         77.69300000  *  151.65300000  * -51.80200000  *
   610       H         78.20800000  *  151.99800000  * -50.90500000  *
   611       C         77.13000000  *  150.25900000  * -51.52900000  *
   612       H         76.63300000  *  149.87200000  * -52.42100000  *
   613       H         77.93900000  *  149.58300000  * -51.25000000  *
   614       H         76.41600000  *  150.30600000  * -50.70900000  *
   615       C         78.69800000  *  151.53600000  * -52.94100000  *
   616       H         79.21500000  *  152.48400000  * -53.07000000  *
   617       H         79.43800000  *  150.77700000  * -52.69700000  *
   618       H         78.18600000  *  151.27200000  * -53.86700000  *
   619       C         75.78600000  *  154.98500000  * -52.67300000  *
   620       O         75.10400000  *  155.26200000  * -51.68300000  *
   621       N         75.54700000  *  155.50800000  * -53.87800000  *
   622       H         76.14500000  *  155.25500000  * -54.66000000  *
   623       C         74.40900000  *  156.37500000  * -54.09400000  *
   624       H         73.97600000  *  156.70200000  * -53.15000000  *
   625       C         74.83400000  *  157.63700000  * -54.81800000  *
   626       H         75.25500000  *  157.34500000  * -55.76600000  *
   627       C         73.61400000  *  158.52200000  * -55.10900000  *
   628       H         73.11700000  *  158.76900000  * -54.17500000  *
   629       H         73.94100000  *  159.43100000  * -55.61500000  *
   630       H         72.91600000  *  158.00900000  * -55.76200000  *
   631       C         75.84000000  *  158.38200000  * -53.94900000  *
   632       H         75.28100000  *  158.78400000  * -53.13000000  *
   633       H         76.65600000  *  157.75800000  * -53.60500000  *
   634       H         76.26100000  *  159.20400000  * -54.52500000  *
   635       C         73.31400000  *  155.64400000  * -54.85300000  *
   636       O         73.49500000  *  155.22100000  * -55.99400000  *
   637       N         72.20900000  *  155.38400000  * -54.16100000  *
   638       H         72.13900000  *  155.73900000  * -53.21100000  *
   639       C         71.03100000  *  154.71300000  * -54.70100000  *
   640       H         71.28000000  *  154.24900000  * -55.65100000  *
   641       C         70.57300000  *  153.61900000  * -53.73100000  *
   642       H         70.43600000  *  154.05800000  * -52.74300000  *
   643       H         69.59800000  *  153.26000000  * -54.05500000  *
   644       C         71.50500000  *  152.42700000  * -53.61100000  *
   645       C         71.36900000  *  151.33600000  * -54.49100000  *
   646       H         70.62900000  *  151.35900000  * -55.27700000  *
   647       C         72.18700000  *  150.20200000  * -54.34500000  *
   648       H         72.07100000  *  149.36000000  * -55.01600000  *
   649       C         73.15300000  *  150.15900000  * -53.32600000  *
   650       H         73.78400000  *  149.28600000  * -53.21400000  *
   651       C         73.29700000  *  151.25000000  * -52.45200000  *
   652       H         74.03300000  *  151.21100000  * -51.66400000  *
   653       C         72.47800000  *  152.38600000  * -52.59500000  *
   654       H         72.58900000  *  153.22100000  * -51.91600000  *
   655       C         69.90000000  *  155.71800000  * -54.93600000  *
   656       O         69.79400000  *  156.71800000  * -54.22600000  *
   657       N         69.02700000  *  155.45700000  * -55.91300000  *
   658       H         69.16300000  *  154.61900000  * -56.46900000  *
   659       C         67.74000000  *  156.16500000  * -55.99100000  *
   660       H         67.95100000  *  157.21600000  * -56.19600000  *
   661       C         66.88100000  *  155.63400000  * -57.15500000  *
   662       H         66.00200000  *  156.27300000  * -57.23500000  *
   663       H         67.44700000  *  155.71200000  * -58.08500000  *
   664       C         66.42800000  *  154.17900000  * -56.96500000  *
   665       H         67.31400000  *  153.54200000  * -56.94600000  *
   666       H         65.92600000  *  154.08500000  * -56.00700000  *
   667       C         65.44800000  *  153.67500000  * -58.03100000  *
   668       O         64.58600000  *  154.43800000  * -58.52300000  *
   669       O         65.49400000  *  152.46600000  * -58.34100000  *
   670       C         66.99200000  *  156.09200000  * -54.64100000  *
   671       O         67.01300000  *  155.06200000  * -53.96100000  *
   672       N         66.33800000  *  157.17900000  * -54.22700000  *
   673       H         66.31800000  *  158.00000000  * -54.81600000  *
   674       C         65.49000000  *  157.17100000  * -53.03300000  *
   675       H         65.96000000  *  156.54900000  * -52.26800000  *
   676       C         65.37800000  *  158.59100000  * -52.46900000  *
   677       H         66.37400000  *  158.94100000  * -52.20100000  *
   678       H         64.98700000  *  159.24900000  * -53.24600000  *
   679       C         64.49300000  *  158.69500000  * -51.24000000  *
   680       C         63.22800000  *  159.30900000  * -51.32100000  *
   681       H         62.88300000  *  159.72200000  * -52.25900000  *
   682       C         62.40300000  *  159.37600000  * -50.18400000  *
   683       H         61.42900000  *  159.84100000  * -50.25300000  *
   684       C         62.83900000  *  158.83100000  * -48.96400000  *
   685       H         62.20300000  *  158.87400000  * -48.09000000  *
   686       C         64.10200000  *  158.22000000  * -48.88100000  *
   687       H         64.43400000  *  157.79500000  * -47.94300000  *
   688       C         64.92600000  *  158.14800000  * -50.01800000  *
   689       H         65.88900000  *  157.66200000  * -49.95500000  *
   690       C         64.10500000  *  156.57900000  * -53.33800000  *
   691       O         63.48200000  *  156.93100000  * -54.34300000  *
   692       N         63.60200000  *  155.72800000  * -52.44000000  *
   693       H         64.18500000  *  155.47100000  * -51.65200000  *
   694       C         62.20900000  *  155.26900000  * -52.41600000  *
   695       H         61.63300000  *  155.79700000  * -53.17700000  *
   696       C         62.12000000  *  153.76200000  * -52.69800000  *
   697       H         62.83600000  *  153.24300000  * -52.06400000  *
   698       H         61.12000000  *  153.43300000  * -52.41100000  *
   699       C         62.35100000  *  153.39600000  * -54.17700000  *
   700       H         62.10700000  *  154.24600000  * -54.81400000  *
   701       C         63.80100000  *  152.98100000  * -54.41900000  *
   702       H         64.05300000  *  152.13600000  * -53.78200000  *
   703       H         63.94000000  *  152.71100000  * -55.46500000  *
   704       H         64.46600000  *  153.80900000  * -54.18100000  *
   705       C         61.45900000  *  152.22400000  * -54.59400000  *
   706       H         60.41300000  *  152.47500000  * -54.41600000  *
   707       H         61.58700000  *  152.02400000  * -55.65700000  *
   708       H         61.71400000  *  151.33200000  * -54.02500000  *
   709       C         61.58000000  *  155.60400000  * -51.06200000  *
   710       O         62.22100000  *  155.49900000  * -50.01900000  *
   711       N         60.32600000  *  156.04600000  * -51.08100000  *
   712       H         59.86500000  *  156.12600000  * -51.97900000  *
   713       C         59.69400000  *  156.73900000  * -49.95600000  *
   714       H         60.39200000  *  157.49500000  * -49.59600000  *
   715       C         58.45300000  *  157.47700000  * -50.47400000  *
   716       H         57.68100000  *  156.74400000  * -50.70900000  *
   717       H         58.08800000  *  158.12600000  * -49.67900000  *
   718       C         58.69100000  *  158.31900000  * -51.70800000  *
   719       N         58.80300000  *  157.83200000  * -53.01500000  *
   720       C         59.02900000  *  158.90600000  * -53.79100000  *
   721       H         59.16300000  *  158.87800000  * -54.86700000  *
   722       N         59.06500000  *  160.02200000  * -53.04500000  *
   723       H         59.21700000  *  160.95900000  * -53.40500000  *
   724       C         58.85700000  *  159.67300000  * -51.72800000  *
   725       H         58.82900000  *  160.33700000  * -50.87300000  *
   726       C         59.36200000  *  155.85800000  * -48.73700000  *
   727       O         59.16800000  *  156.39700000  * -47.64700000  *
   728       N         59.30000000  *  154.52800000  * -48.88900000  *
   729       H         59.47200000  *  154.14300000  * -49.80900000  *
   730       C         58.95600000  *  153.58200000  * -47.81600000  *
   731       H         59.39200000  *  153.95000000  * -46.88500000  *
   732       C         57.42000000  *  153.56300000  * -47.64900000  *
   733       H         57.09300000  *  154.57200000  * -47.39600000  *
   734       H         56.94900000  *  153.28400000  * -48.59300000  *
   735       C         56.93700000  *  152.60500000  * -46.54800000  *
   736       H         56.79500000  *  151.61400000  * -46.97500000  *
   737       H         57.69500000  *  152.54300000  * -45.76800000  *
   738       C         55.64500000  *  153.06500000  * -45.88400000  *
   739       O         55.64900000  *  153.68400000  * -44.83200000  *
   740       N         54.49400000  *  152.78400000  * -46.45500000  *
   741       H         53.66400000  *  153.11100000  * -45.98200000  *
   742       H         54.46200000  *  152.30600000  * -47.33700000  *
   743       C         59.53600000  *  152.17300000  * -48.06300000  *
   744       O         59.64200000  *  151.72700000  * -49.20500000  *
   745       N         59.90900000  *  151.46400000  * -46.99100000  *
   746       H         59.81600000  *  151.88700000  * -46.08100000  *
   747       C         60.26900000  *  150.03700000  * -47.02700000  *
   748       H         60.59600000  *  149.79300000  * -48.03300000  *
   749       C         61.46000000  *  149.76600000  * -46.09500000  *
   750       H         61.79100000  *  148.73700000  * -46.24700000  *
   751       H         62.28600000  *  150.41900000  * -46.38000000  *
   752       C         61.13800000  *  149.97300000  * -44.61300000  *
   753       O         60.33100000  *  149.19100000  * -44.06900000  *
   754       O         61.71000000  *  150.90700000  * -44.00500000  *
   755       C         59.07600000  *  149.11000000  * -46.70600000  *
   756       O         58.05700000  *  149.54100000  * -46.15100000  *
   757       N         59.19100000  *  147.81900000  * -47.04800000  *
   758       H         60.03800000  *  147.50900000  * -47.52500000  *
   759       C         58.10100000  *  146.88000000  * -46.84100000  *
   760       H         57.21800000  *  147.32500000  * -47.29300000  *
   761       C         58.41200000  *  145.57700000  * -47.59200000  *
   762       H         58.61300000  *  145.80400000  * -48.64400000  *
   763       H         59.28800000  *  145.12100000  * -47.15800000  *
   764       C         57.28700000  *  144.52700000  * -47.51900000  *
   765       H         57.05600000  *  144.28000000  * -46.48700000  *
   766       C         56.00700000  *  145.04400000  * -48.19600000  *
   767       H         56.23500000  *  145.37800000  * -49.20200000  *
   768       H         55.26800000  *  144.24500000  * -48.23100000  *
   769       H         55.59500000  *  145.87000000  * -47.62900000  *
   770       C         57.76800000  *  143.24900000  * -48.17500000  *
   771       H         58.61500000  *  142.85400000  * -47.62000000  *
   772       H         56.97300000  *  142.50400000  * -48.17100000  *
   773       H         58.06400000  *  143.44500000  * -49.20700000  *
   774       C         57.76400000  *  146.61300000  * -45.36900000  *
   775       O         56.60900000  *  146.37600000  * -45.03000000  *
   776       N         58.75700000  *  146.67700000  * -44.48800000  *
   777       H         59.64000000  *  147.08600000  * -44.79000000  *
   778       C         58.49100000  *  146.46700000  * -43.07300000  *
   779       H         57.97900000  *  145.55100000  * -42.87200000  *
   780       C         59.78200000  *  146.47800000  * -42.25400000  *
   781       H         60.44800000  *  145.70000000  * -42.62000000  *
   782       H         60.28600000  *  147.44000000  * -42.35600000  *
   783       C         59.49200000  *  146.22900000  * -40.76500000  *
   784       H         58.94200000  *  147.08300000  * -40.37400000  *
   785       H         58.87100000  *  145.33200000  * -40.67600000  *
   786       C         60.74500000  *  146.03800000  * -39.93500000  *
   787       H         61.36100000  *  145.25900000  * -40.37900000  *
   788       H         61.30800000  *  146.97100000  * -39.90700000  *
   789       C         60.37600000  *  145.60700000  * -38.51700000  *
   790       H         59.98500000  *  144.58900000  * -38.53700000  *
   791       H         61.27900000  *  145.61300000  * -37.90300000  *
   792       N         59.34600000  *  146.53100000  * -37.94700000  *
   793       H         58.44600000  *  146.48100000  * -38.44300000  *
   794       H         59.09000000  *  146.27800000  * -37.00400000  *
   795       H         59.61300000  *  147.50600000  * -37.97800000  *
   796       C         57.55800000  *  147.53800000  * -42.51200000  *
   797       O         56.61300000  *  147.23400000  * -41.78300000  *
   798       N         57.83800000  *  148.81000000  * -42.80700000  *
   799       H         58.67600000  *  148.99600000  * -43.36300000  *
   800       C         57.01900000  *  149.93500000  * -42.34000000  *
   801       H         56.91500000  *  149.86200000  * -41.25600000  *
   802       C         57.73000000  *  151.25600000  * -42.66800000  *
   803       H         58.76000000  *  151.19700000  * -42.31000000  *
   804       H         57.74800000  *  151.40200000  * -43.74700000  *
   805       C         57.04900000  *  152.45500000  * -41.99000000  *
   806       H         56.04000000  *  152.57100000  * -42.38500000  *
   807       H         56.98400000  *  152.27100000  * -40.91700000  *
   808       C         57.84100000  *  153.75000000  * -42.22400000  *
   809       H         58.83100000  *  153.64900000  * -41.77600000  *
   810       H         57.95100000  *  153.92300000  * -43.29600000  *
   811       C         57.10600000  *  154.93400000  * -41.58400000  *
   812       H         56.12100000  *  155.02800000  * -42.05200000  *
   813       H         56.95200000  *  154.71700000  * -40.52300000  *
   814       N         57.86500000  *  156.20000000  * -41.73500000  *
   815       H         58.00500000  *  156.43200000  * -42.70800000  *
   816       H         57.37200000  *  156.97100000  * -41.30600000  *
   817       H         58.77100000  *  156.13800000  * -41.29500000  *
   818       C         55.61000000  *  149.84500000  * -42.92700000  *
   819       O         54.63500000  *  150.09200000  * -42.22400000  *
   820       N         55.49500000  *  149.42600000  * -44.18900000  *
   821       H         56.35000000  *  149.26300000  * -44.71300000  *
   822       C         54.20500000  *  149.26000000  * -44.85200000  *
   823       H         53.62600000  *  150.17500000  * -44.72500000  *
   824       C         54.41000000  *  148.98800000  * -46.34000000  *
   825       H         54.98900000  *  149.80200000  * -46.77700000  *
   826       H         55.00200000  *  148.07700000  * -46.45200000  *
   827       C         53.12600000  *  148.85300000  * -47.10800000  *
   828       C         52.23100000  *  149.92200000  * -47.18600000  *
   829       H         52.46300000  *  150.85600000  * -46.69900000  *
   830       C         51.01500000  *  149.79500000  * -47.88400000  *
   831       H         50.32500000  *  150.62800000  * -47.91800000  *
   832       C         50.69700000  *  148.60300000  * -48.50200000  *
   833       H         49.75200000  *  148.50200000  * -49.02000000  *
   834       C         51.58700000  *  147.52100000  * -48.43200000  *
   835       H         51.33500000  *  146.58300000  * -48.91200000  *
   836       C         52.79500000  *  147.65400000  * -47.73300000  *
   837       H         53.46700000  *  146.81000000  * -47.67200000  *
   838       C         53.37400000  *  148.12200000  * -44.22700000  *
   839       O         52.16900000  *  148.28300000  * -44.00900000  *
   840       N         54.01600000  *  146.98100000  * -43.96600000  *
   841       H         55.00900000  *  146.90600000  * -44.17900000  *
   842       C         53.33800000  *  145.83600000  * -43.34100000  *
   843       H         52.47600000  *  145.52800000  * -43.93400000  *
   844       C         54.29200000  *  144.65000000  * -43.17000000  *
   845       H         55.15800000  *  145.02700000  * -42.63600000  *
   846       H         53.80700000  *  143.89200000  * -42.54700000  *
   847       C         54.73100000  *  144.00400000  * -44.46100000  *
   848       H         53.84700000  *  143.61400000  * -44.95900000  *
   849       H         55.19200000  *  144.69400000  * -45.15000000  *
   850       S         55.79700000  *  142.58100000  * -44.15400000  *
   851       C         57.05400000  *  143.29200000  * -43.18800000  *
   852       H         56.67800000  *  143.65800000  * -42.23500000  *
   853       H         57.80700000  *  142.53400000  * -42.98200000  *
   854       H         57.44300000  *  144.07900000  * -43.80900000  *
   855       C         52.84400000  *  146.26000000  * -41.95900000  *
   856       O         51.68200000  *  146.03200000  * -41.61400000  *
   857       N         53.72600000  *  146.88400000  * -41.17900000  *
   858       H         54.70100000  *  146.95700000  * -41.45300000  *
   859       C         53.34300000  *  147.35100000  * -39.84600000  *
   860       H         53.03400000  *  146.49700000  * -39.23800000  *
   861       C         54.50500000  *  148.07700000  * -39.15700000  *
   862       H         54.94100000  *  148.81500000  * -39.83000000  *
   863       H         54.12400000  *  148.60600000  * -38.28400000  *
   864       C         55.58400000  *  147.11500000  * -38.68500000  *
   865       O         55.26200000  *  145.90900000  * -38.57600000  *
   866       O         56.73300000  *  147.55200000  * -38.41700000  *
   867       C         52.15000000  *  148.27900000  * -39.96300000  *
   868       O         51.20300000  *  148.18000000  * -39.18700000  *
   869       N         52.18300000  *  149.16200000  * -40.95500000  *
   870       H         53.01600000  *  149.23700000  * -41.51800000  *
   871       C         51.08600000  *  150.10000000  * -41.17300000  *
   872       H         50.93100000  *  150.67400000  * -40.25800000  *
   873       C         51.42800000  *  151.06800000  * -42.31500000  *
   874       H         51.45500000  *  150.53900000  * -43.26600000  *
   875       H         50.66000000  *  151.83800000  * -42.36800000  *
   876       H         52.39300000  *  151.53600000  * -42.12800000  *
   877       C         49.78900000  *  149.37000000  * -41.49900000  *
   878       O         48.71100000  *  149.83600000  * -41.15600000  *
   879       N         49.90500000  *  148.22900000  * -42.16400000  *
   880       H         50.83800000  *  147.88500000  * -42.38200000  *
   881       C         48.74000000  *  147.45400000  * -42.57500000  *
   882       H         47.85700000  *  148.08600000  * -42.62800000  *
   883       H         48.90600000  *  147.02300000  * -43.58600000  *
   884       H         48.52600000  *  146.61900000  * -41.88800000  *
   885       H         72.54500000  *  137.05800000  * -55.15200000  *
   886       C         72.38600000  *  137.90500000  * -54.47400000  *
   887       O         73.28300000  *  138.71900000  * -54.28600000  *
   888       N         71.20100000  *  138.01500000  * -53.89800000  *
   889       H         70.47300000  *  137.31400000  * -54.05700000  *
   890       C         70.96800000  *  139.10000000  * -52.94900000  *
   891       H         71.50000000  *  140.00600000  * -53.22900000  *
   892       C         69.47700000  *  139.40500000  * -52.82500000  *
   893       H         69.09300000  *  139.71900000  * -53.79200000  *
   894       H         68.93000000  *  138.50600000  * -52.53300000  *
   895       C         69.17800000  *  140.45400000  * -51.81200000  *
   896       N         69.23000000  *  140.42300000  * -50.45900000  *
   897       C         68.94700000  *  141.69100000  * -50.01400000  *
   898       H         68.96900000  *  142.01200000  * -48.98400000  *
   899       N         68.72400000  *  142.47200000  * -51.05500000  *
   900       H         68.47200000  *  143.44500000  * -51.00700000  *
   901       C         68.85400000  *  141.75000000  * -52.15500000  *
   902       H         68.77100000  *  142.12600000  * -53.16500000  *
   903       C         71.52100000  *  138.65700000  * -51.58300000  *
   904       O         72.28000000  *  139.38000000  * -50.94700000  *
   905       N         71.11400000  *  137.47100000  * -51.14500000  *
   906       H         70.37100000  *  137.01600000  * -51.66500000  *
   907       C         71.55500000  *  136.88000000  * -49.87700000  *
   908       H         71.18200000  *  135.84900000  * -49.87900000  *
   909       C         73.07600000  *  136.85300000  * -49.83700000  *
   910       H         73.53100000  *  137.83300000  * -49.86900000  *
   911       H         73.36600000  *  136.47900000  * -48.85100000  *
   912       C         73.64700000  *  135.85900000  * -50.81700000  *
   913       H         73.29800000  *  134.87100000  * -50.67200000  *
   914       H         73.21600000  *  136.10500000  * -51.78700000  *
   915       C         75.11700000  *  136.08400000  * -50.99900000  *
   916       H         75.61200000  *  135.95400000  * -50.03300000  *
   917       H         75.49500000  *  135.33200000  * -51.69500000  *
   918       N         75.35800000  *  137.42700000  * -51.50600000  *
   919       H         74.62100000  *  138.12700000  * -51.38200000  *
   920       C         76.54800000  *  137.85900000  * -51.89000000  *
   921       N         77.59300000  *  137.04400000  * -51.81500000  *
   922       H         77.44700000  *  136.21200000  * -51.26800000  *
   923       H         78.49900000  *  137.44300000  * -51.92100000  *
   924       N         76.69000000  *  139.09300000  * -52.35600000  *
   925       H         75.86000000  *  139.69200000  * -52.33800000  *
   926       H         77.56200000  *  139.47800000  * -52.67100000  *
   927       C         71.03700000  *  137.42400000  * -48.54200000  *
   928       O         71.18700000  *  136.76800000  * -47.50900000  *
   929       N         70.43700000  *  138.60400000  * -48.51600000  *
   930       H         70.32800000  *  139.16900000  * -49.34700000  *
   931       C         69.93700000  *  139.07600000  * -47.23100000  *
   932       H         69.76500000  *  138.24900000  * -46.54100000  *
   933       C         70.93500000  *  140.04200000  * -46.56200000  *
   934       H         71.90900000  *  139.56600000  * -46.50900000  *
   935       H         71.04400000  *  140.94300000  * -47.17900000  *
   936       C         70.51300000  *  140.42800000  * -45.14700000  *
   937       O         70.17200000  *  139.51500000  * -44.35500000  *
   938       O         70.51000000  *  141.64400000  * -44.82500000  *
   939       C         68.58700000  *  139.73400000  * -47.37800000  *
   940       O         68.35000000  *  140.81000000  * -46.83500000  *
   941       N         67.68700000  *  139.08300000  * -48.11000000  *
   942       H         67.94300000  *  138.20800000  * -48.54500000  *
   943       C         66.35900000  *  139.64900000  * -48.29900000  *
   944       H         66.47700000  *  140.66700000  * -48.65900000  *
   945       C         65.54600000  *  138.81300000  * -49.28800000  *
   946       H         65.58300000  *  137.78400000  * -48.94500000  *
   947       H         64.50600000  *  139.14000000  * -49.25500000  *
   948       C         66.02700000  *  138.85500000  * -50.73600000  *
   949       H         67.06400000  *  138.52800000  * -50.78200000  *
   950       C         65.17300000  *  137.91700000  * -51.58300000  *
   951       H         64.15900000  *  138.30500000  * -51.68800000  *
   952       H         65.63400000  *  137.80700000  * -52.55000000  *
   953       H         65.13400000  *  136.93500000  * -51.11000000  *
   954       C         65.92100000  *  140.27700000  * -51.26400000  *
   955       H         66.42000000  *  140.99600000  * -50.63300000  *
   956       H         66.44200000  *  140.27500000  * -52.20900000  *
   957       H         64.88200000  *  140.56100000  * -51.39700000  *
   958       C         65.59400000  *  139.73400000  * -46.98200000  *
   959       O         65.58600000  *  138.79200000  * -46.16600000  *
   960       N         64.95500000  *  140.85500000  * -46.74700000  *
   961       H         64.96600000  *  141.58700000  * -47.44400000  *
   962       C         64.16200000  *  141.06000000  * -45.55000000  *
   963       H         63.54800000  *  140.17000000  * -45.41600000  *
   964       C         65.03500000  *  141.22000000  * -44.28700000  *
   965       H         64.39600000  *  141.28600000  * -43.40600000  *
   966       H         65.62600000  *  140.31200000  * -44.16700000  *
   967       C         65.97800000  *  142.42900000  * -44.28800000  *
   968       H         66.39600000  *  142.57700000  * -45.28100000  *
   969       H         65.43000000  *  143.32300000  * -43.99000000  *
   970       C         67.12500000  *  142.15300000  * -43.31000000  *
   971       H         66.71900000  *  141.88300000  * -42.33200000  *
   972       H         67.69700000  *  141.30600000  * -43.69700000  *
   973       C         68.04600000  *  143.36400000  * -43.15400000  *
   974       H         68.16500000  *  143.85100000  * -44.12700000  *
   975       H         67.56900000  *  144.08100000  * -42.47600000  *
   976       N         69.36900000  *  142.93700000  * -42.63100000  *
   977       H         69.86500000  *  142.37900000  * -43.34100000  *
   978       H         69.93900000  *  143.73600000  * -42.38100000  *
   979       H         69.26000000  *  142.36800000  * -41.80200000  *
   980       C         63.26500000  *  142.23000000  * -45.83900000  *
   981       O         63.62700000  *  143.07700000  * -46.65600000  *
   982       N         62.11200000  *  142.30300000  * -45.18600000  *
   983       C         61.62600000  *  141.34600000  * -44.17100000  *
   984       H         62.10000000  *  141.53200000  * -43.20900000  *
   985       H         61.74500000  *  140.31100000  * -44.47600000  *
   986       C         60.16400000  *  141.66900000  * -44.09500000  *
   987       H         59.73700000  *  141.34900000  * -43.14300000  *
   988       H         59.63700000  *  141.20600000  * -44.93200000  *
   989       C         60.16000000  *  143.18900000  * -44.24800000  *
   990       H         60.51600000  *  143.64900000  * -43.32100000  *
   991       H         59.20200000  *  143.56500000  * -44.57400000  *
   992       C         61.14500000  *  143.38000000  * -45.40300000  *
   993       H         60.63400000  *  143.20500000  * -46.34500000  *
   994       C         61.77100000  *  144.77100000  * -45.44800000  *
   995       O         61.39200000  *  145.58400000  * -46.27300000  *
   996       N         62.73000000  *  145.09400000  * -44.56200000  *
   997       H         62.97800000  *  144.41000000  * -43.86200000  *
   998       C         63.43600000  *  146.40000000  * -44.54300000  *
   999       H         62.69500000  *  147.19900000  * -44.47300000  *
  1000       C         64.36800000  *  146.49400000  * -43.32100000  *
  1001       H         65.05900000  *  145.65000000  * -43.33000000  *
  1002       H         64.95900000  *  147.40800000  * -43.40900000  *
  1003       C         63.63900000  *  146.54800000  * -41.97300000  *
  1004       H         62.92300000  *  147.37100000  * -41.99300000  *
  1005       H         63.10000000  *  145.61700000  * -41.81500000  *
  1006       C         64.61300000  *  146.74500000  * -40.81000000  *
  1007       O         65.62400000  *  146.06700000  * -40.68900000  *
  1008       N         64.35200000  *  147.66600000  * -39.90700000  *
  1009       H         65.00600000  *  147.78600000  * -39.14700000  *
  1010       H         63.54800000  *  148.26700000  * -39.99400000  *
  1011       C         64.29100000  *  146.68800000  * -45.79600000  *
  1012       O         64.52300000  *  147.84600000  * -46.13900000  *
  1013       N         64.76100000  *  145.64000000  * -46.47700000  *
  1014       H         64.45200000  *  144.72200000  * -46.18900000  *
  1015       C         65.53800000  *  145.70300000  * -47.71600000  *
  1016       H         66.09500000  *  146.64200000  * -47.75300000  *
  1017       C         66.55700000  *  144.53200000  * -47.74100000  *
  1018       H         66.06500000  *  143.61000000  * -47.44300000  *
  1019       H         66.91200000  *  144.38600000  * -48.75900000  *
  1020       C         67.80200000  *  144.74400000  * -46.88800000  *
  1021       O         68.12500000  *  145.84200000  * -46.46400000  *
  1022       N         68.55600000  *  143.70100000  * -46.60900000  *
  1023       H         69.44600000  *  143.86600000  * -46.16600000  *
  1024       H         68.30100000  *  142.74800000  * -46.85100000  *
  1025       C         64.63300000  *  145.70600000  * -48.96700000  *
  1026       O         65.15500000  *  145.61300000  * -50.07600000  *
  1027       N         63.30000000  *  145.80300000  * -48.83400000  *
  1028       H         62.89500000  *  145.87300000  * -47.90900000  *
  1029       C         62.40600000  *  145.84500000  * -49.97900000  *
  1030       H         62.94700000  *  145.74800000  * -50.91900000  *
  1031       C         61.36900000  *  144.72100000  * -49.88900000  *
  1032       H         60.76900000  *  144.86100000  * -48.99200000  *
  1033       H         60.74400000  *  144.79800000  * -50.77200000  *
  1034       C         62.03600000  *  143.32400000  * -49.85900000  *
  1035       H         62.67100000  *  143.24000000  * -48.98800000  *
  1036       C         61.00200000  *  142.26000000  * -49.77100000  *
  1037       H         60.24600000  *  142.42800000  * -50.53400000  *
  1038       H         61.44700000  *  141.27100000  * -49.89000000  *
  1039       H         60.52000000  *  142.31900000  * -48.79800000  *
  1040       C         62.89500000  *  143.12600000  * -51.08400000  *
  1041       H         63.82900000  *  143.66800000  * -50.95600000  *
  1042       H         63.12900000  *  142.06900000  * -51.20900000  *
  1043       H         62.39300000  *  143.49200000  * -51.96600000  *
  1044       C         61.76300000  *  147.21800000  * -49.95200000  *
  1045       O         61.15000000  *  147.60200000  * -48.96600000  *
  1046       N         61.87800000  *  147.97800000  * -51.03200000  *
  1047       H         62.36800000  *  147.60800000  * -51.84100000  *
  1048       C         61.43700000  *  149.37000000  * -51.05500000  *
  1049       H         61.04200000  *  149.66300000  * -50.08400000  *
  1050       C         62.61900000  *  150.28100000  * -51.35800000  *
  1051       H         62.95000000  *  150.09700000  * -52.38100000  *
  1052       H         62.26400000  *  151.30500000  * -51.27900000  *
  1053       C         63.81100000  *  150.09300000  * -50.41400000  *
  1054       H         64.21600000  *  149.08900000  * -50.52000000  *
  1055       C         64.87100000  *  151.09500000  * -50.81900000  *
  1056       H         64.53300000  *  152.09600000  * -50.56400000  *
  1057       H         65.79400000  *  150.85700000  * -50.29800000  *
  1058       H         65.05000000  *  151.06100000  * -51.88600000  *
  1059       C         63.47900000  *  150.33800000  * -48.94400000  *
  1060       H         62.84300000  *  149.53800000  * -48.57900000  *
  1061       H         64.39300000  *  150.33500000  * -48.35200000  *
  1062       H         62.97000000  *  151.29400000  * -48.82500000  *
  1063       C         60.32300000  *  149.56500000  * -52.06500000  *
  1064       O         60.42400000  *  149.10900000  * -53.19200000  *
  1065       N         59.26800000  *  150.25600000  * -51.67700000  *
  1066       H         59.36500000  *  150.76300000  * -50.80000000  *
  1067       C         58.08300000  *  150.44700000  * -52.50800000  *
  1068       H         58.17300000  *  149.92400000  * -53.45700000  *
  1069       C         56.81900000  *  149.90600000  * -51.78600000  *
  1070       H         55.94300000  *  150.08700000  * -52.41500000  *
  1071       C         56.95000000  *  148.40400000  * -51.54300000  *
  1072       H         57.75300000  *  148.18300000  * -50.83300000  *
  1073       H         56.01300000  *  148.00400000  * -51.15200000  *
  1074       H         57.15800000  *  147.91500000  * -52.48900000  *
  1075       C         56.64700000  *  150.60600000  * -50.43300000  *
  1076       H         57.48200000  *  150.38000000  * -49.77500000  *
  1077       H         56.60500000  *  151.68300000  * -50.57600000  *
  1078       C         55.37000000  *  150.22200000  * -49.68600000  *
  1079       H         55.48900000  *  149.24800000  * -49.22200000  *
  1080       H         55.17000000  *  150.96500000  * -48.91000000  *
  1081       H         54.52900000  *  150.16800000  * -50.38500000  *
  1082       C         57.87200000  *  151.93000000  * -52.81700000  *
  1083       O         58.38200000  *  152.79400000  * -52.10000000  *
  1084       N         57.14900000  *  152.22000000  * -53.89700000  *
  1085       H         56.70500000  *  151.48200000  * -54.43300000  *
  1086       C         56.84100000  *  153.60200000  * -54.22700000  *
  1087       H         57.16800000  *  154.27800000  * -53.43100000  *
  1088       C         57.50400000  *  154.05300000  * -55.54100000  *
  1089       H         57.21800000  *  155.07000000  * -55.80500000  *
  1090       H         58.58200000  *  154.04400000  * -55.38800000  *
  1091       C         57.19300000  *  153.14600000  * -56.70100000  *
  1092       O         56.13500000  *  152.53500000  * -56.76400000  *
  1093       N         58.11500000  *  153.07200000  * -57.64100000  *
  1094       H         57.83300000  *  152.61700000  * -58.48600000  *
  1095       H         58.88600000  *  153.71500000  * -57.62100000  *
  1096       C         55.33100000  *  153.75800000  * -54.32100000  *
  1097       O         54.57600000  *  152.79900000  * -54.11400000  *
  1098       N         54.88500000  *  154.97100000  * -54.62100000  *
  1099       H         55.52100000  *  155.73600000  * -54.79200000  *
  1100       C         53.46400000  *  155.24700000  * -54.72300000  *
  1101       H         52.92700000  *  154.82600000  * -53.87200000  *
  1102       C         53.20900000  *  156.78000000  * -54.75500000  *
  1103       H         52.16900000  *  156.98000000  * -55.02600000  *
  1104       C         53.47800000  *  157.39700000  * -53.41000000  *
  1105       H         54.52100000  *  157.25500000  * -53.13000000  *
[...]
 1005  H   0.82925
 1006  C   1.06513   0.79286   0.73906   0.79755
 1007  O   1.87706   1.41039   1.59345   1.81609
 1008  N   1.52699   1.35644   1.38502   1.33020
 1009  H   0.65750
 1010  H   0.66279
 1011  C   1.08418   0.75799   0.78141   0.81353
 1012  O   1.88521   1.66199   1.31001   1.73676
 1013  N   1.55183   1.50547   1.20310   1.30252
 1014  H   0.66517
 1015  C   1.07329   0.94690   1.09676   0.82033
 1016  H   0.80376
 1017  C   1.07082   1.04612   1.08889   1.16705
 1018  H   0.83095
 1019  H   0.79634
 1020  C   1.05910   0.80867   0.76736   0.75137
 1021  O   1.87640   1.77277   1.38953   1.63005
 1022  N   1.53178   1.30325   1.19181   1.59701
 1023  H   0.66360
 1024  H   0.65446
 1025  C   1.08749   0.78515   0.72009   0.85261
 1026  O   1.87876   1.76719   1.60970   1.37948
 1027  N   1.54125   1.12626   1.66503   1.18394
 1028  H   0.65444
 1029  C   1.07001   0.96894   0.98040   0.97400
 1030  H   0.81075
 1031  C   1.06729   1.06419   0.99766   1.17262
 1032  H   0.83764
 1033  H   0.84779
 1034  C   1.04102   1.01208   0.94619   1.06241
 1035  H   0.85604
 1036  C   1.04921   1.12581   1.11847   1.17070
 1037  H   0.84468
 1038  H   0.84875
 1039  H   0.86586
 1040  C   1.05154   1.14141   1.17193   1.09885
 1041  H   0.84470
 1042  H   0.85749
 1043  H   0.84968
 1044  C   1.07599   0.75062   0.84361   0.75580
 1045  O   1.87181   1.53782   1.79682   1.44759
 1046  N   1.54511   1.55761   1.17183   1.24376
 1047  H   0.64504
 1048  C   1.06452   0.99190   0.82586   1.10020
 1049  H   0.81430
 1050  C   1.06424   1.02099   1.10585   1.12817
 1051  H   0.84597
 1052  H   0.83980
 1053  C   1.04776   0.96591   1.07504   0.96836
 1054  H   0.86604
 1055  C   1.05372   1.12183   1.13299   1.16574
 1056  H   0.84550
 1057  H   0.84855
 1058  H   0.85994
 1059  C   1.05477   1.17729   1.17597   1.04648
 1060  H   0.84077
 1061  H   0.85171
 1062  H   0.84743
 1063  C   1.07500   0.79765   0.74434   0.81759
 1064  O   1.86926   1.82965   1.62634   1.34098
 1065  N   1.54174   1.18963   1.47050   1.29554
 1066  H   0.64348
 1067  C   1.07598   0.88901   1.00706   1.04154
 1068  H   0.81018
 1069  C   1.06433   1.01568   0.99266   1.02000
 1070  H   0.85031
 1071  C   1.05464   1.18101   1.03453   1.17653
 1072  H   0.84342
 1073  H   0.84528
 1074  H   0.85342
 1075  C   1.05401   1.06914   1.12006   1.03151
 1076  H   0.84518
 1077  H   0.86085
 1078  C   1.05258   1.09014   1.15738   1.13208
 1079  H   0.84858
 1080  H   0.87758
 1081  H   0.84686
 1082  C   1.08621   0.74267   0.88760   0.74265
 1083  O   1.88686   1.56796   1.57606   1.55643
 1084  N   1.54296   1.50747   1.14386   1.33789
 1085  H   0.64365
 1086  C   1.06240   0.97148   0.88450   1.03781
 1087  H   0.80389
 1088  C   1.07254   1.18130   1.12775   1.02359
 1089  H   0.80968
 1090  H   0.80382
 1091  C   1.06093   0.76167   0.77058   0.82359
 1092  O   1.88008   1.35593   1.56939   1.83595
 1093  N   1.53414   1.29772   1.49491   1.27192
 1094  H   0.67211
 1095  H   0.66440
 1096  C   1.08315   0.88511   0.75922   0.71304
 1097  O   1.88775   1.65424   1.46850   1.58893
 1098  N   1.54016   1.14509   1.19771   1.67202
 1099  H   0.66306
 1100  C   1.08553   0.83738   1.05826   1.08259
 1101  H   0.80379
 1102  C   1.08427   0.99179   0.86681   0.88977
 1103  H   0.84673
 1104  C   1.05381   1.18376   1.18033   1.05454
 1105  H   0.84139
 1106  H   0.82422
 1107  H   0.82937
 1108  O   1.84883   1.59216   1.82292   1.34523
 1109  H   0.64253
 1110  C   1.07331   0.78893   0.75533   0.82411
 1111  O   1.87783   1.28007   1.68911   1.84889
 1112  N   1.53329   1.19342   1.53448   1.21088
 1113  H   0.66708
 1114  C   1.05709   1.15381   1.13342   0.89312
 1115  H   0.83550
 1116  H   0.83770
 1117  H   0.83542
 1118  H   0.83961
 1119  C   1.10508   0.75482   0.73540   0.91357
 1120  O   1.88314   1.71053   1.59671   1.48259
 1121  N   1.54487   1.42799   1.34580   1.20805
 1122  H   0.65362
 1123  C   1.08069   0.93113   1.08419   0.93149
 1124  H   0.80949
 1125  C   1.07316   1.07911   0.95393   0.98248
 1126  H   0.84391
 1127  C   1.05811   1.18718   1.08409   1.12936
 1128  H   0.84355
 1129  H   0.84847
 1130  H   0.85194
 1131  C   1.05414   1.07586   1.13439   1.01863
 1132  H   0.85370
 1133  H   0.85479
 1134  C   1.04919   1.14382   1.15107   1.09051
 1135  H   0.84992
 1136  H   0.85992
 1137  H   0.84938
 1138  C   1.07225   0.84165   0.73669   0.77782
 1139  O   1.87775   1.89036   1.52080   1.39085
 1140  N   1.54467   1.10296   1.52634   1.33520
 1141  H   0.63273
 1142  C   1.06990   0.84582   1.05448   1.03744
 1143  H   0.81826
 1144  C   1.06008   1.09235   1.04545   1.09647
 1145  H   0.83559
 1146  H   0.84688
 1147  C   1.05102   1.08536   1.04427   1.07712
 1148  H   0.85090
 1149  H   0.84427
 1150  C   1.05930   1.08192   1.05403   1.09866
 1151  H   0.84134
 1152  H   0.83226
 1153  C   1.07856   1.02187   0.99729   1.07350
 1154  H   0.81301
 1155  H   0.83341
 1156  N   1.46102   1.23192   1.23291   1.25937
 1157  H   0.68760
 1158  H   0.70019
 1159  H   0.68833
 1160  C   1.07848   0.77974   0.75021   0.82541
 1161  O   1.88109   1.77273   1.69332   1.29106
 1162  N   1.54485   1.32883   1.42528   1.23097
 1163  H   0.64026
 1164  C   1.07018   0.91842   0.95749   1.02921
 1165  H   0.83199
 1166  C   1.06278   1.10014   1.01946   1.13288
 1167  H   0.83519
 1168  H   0.84497
 1169  C   1.05373   1.07059   0.96093   0.96347
 1170  H   0.85957
 1171  C   1.06224   1.16617   1.13945   1.09222
 1172  H   0.85192
 1173  H   0.84913
 1174  H   0.85263
 1175  C   1.05740   1.18279   1.13705   1.08874
 1176  H   0.85357
 1177  H   0.84817
 1178  H   0.85423
 1179  C   1.08490   0.79138   0.79885   0.75855
 1180  O   1.88071   1.63504   1.59986   1.53870
 1181  N   1.54353   1.36788   1.43731   1.15986
 1182  H   0.64593
 1183  C   1.06697   0.91248   0.92901   1.04932
 1184  H   0.83139
 1185  C   1.05960   1.16485   1.08872   1.15079
 1186  H   0.82211
 1187  H   0.83238
 1188  H   0.82683
 1189  C   1.08771   0.78852   0.78494   0.74645
 1190  O   1.87234   1.84383   1.36123   1.59483
 1191  N   1.54631   1.17282   1.32555   1.49090
 1192  H   0.67247
 1193  C   1.07555   0.87923   1.08190   0.93080
 1194  H   0.81102
 1195  C   1.07961   1.14207   1.18250   1.00824
 1196  H   0.80810
 1197  H   0.83017
 1198  C   1.07290   0.73840   0.71096   0.71459
 1199  O   1.88598   1.82269   1.49810   1.52613
 1200  O   1.87159   1.63097   1.53881   1.81896
 1201  C   1.09111   0.81912   0.79467   0.74842
 1202  O   1.88736   1.28256   1.80672   1.56478
 1203  N   1.56712   1.29471   1.16860   1.54433
 1204  H   0.68028
 1205  C   1.07969   1.02035   0.91823   0.95335
 1206  H   0.83883
 1207  C   1.05570   1.07762   1.20285   0.96260
 1208  H   0.81364
 1209  H   0.81956
 1210  C   1.07474   0.97400   0.97749   0.97008
 1211  C   1.09009   1.04125   1.04131   1.01402
 1212  H   0.83944
 1213  C   1.08870   0.98516   1.06190   1.01018
 1214  H   0.84207
 1215  C   1.08745   1.05976   0.99147   1.03205
 1216  H   0.84758
 1217  C   1.08932   1.03684   1.03632   0.98952
 1218  H   0.83201
 1219  C   1.08704   0.98665   1.06386   1.02411
 1220  H   0.83929
 1221  C   1.08969   0.80310   0.77355   0.76325
 1222  O   1.88551   1.44240   1.55777   1.71315
 1223  N   1.53974   1.41488   1.43891   1.13722
 1224  H   0.68786
 1225  C   1.06867   0.98862   1.06907   0.98096
 1226  H   0.81251
 1227  H   0.80563
 1228  C   1.07944   0.82818   0.77889   0.70483
 1229  O   1.87694   1.84074   1.32433   1.61093
 1230  N   1.55812   1.29997   1.23397   1.44802
 1231  H   0.67271
 1232  C   1.07770   0.89821   1.03310   0.96886
 1233  H   0.83257
 1234  C   1.06798   1.11385   0.95029   1.17434
 1235  H   0.84034
 1236  H   0.82868
 1237  C   1.05176   1.03172   0.96092   1.01061
 1238  H   0.86333
 1239  C   1.05602   1.16822   1.06740   1.16460
 1240  H   0.85842
 1241  H   0.84253
 1242  H   0.85544
 1243  C   1.05563   1.17131   1.18863   1.04593
 1244  H   0.84173
 1245  H   0.84114
 1246  H   0.85769
 1247  C   1.09528   0.85787   0.76607   0.72663
 1248  O   1.88126   1.32453   1.78566   1.59347
 1249  N   1.58221   1.28190   1.23320   1.52139
 1250  H   0.66066
 1251  C   1.06850   0.96462   0.99736   0.95397
 1252  H   0.83692
 1253  C   1.05864   1.13964   1.09733   1.17447
 1254  H   0.84381
 1255  H   0.80992
 1256  H   0.81035
 1257  C   1.07580   0.83420   0.75245   0.78163
 1258  O   1.88394   1.49929   1.59939   1.64938
 1259  N   1.54297   1.31143   1.51222   1.14405
 1260  H   0.67621
 1261  C   1.06251   0.92411   1.14577   1.10587
 1262  H   0.82626
 1263  H   0.82950
 1264  H   0.83899
 1265  H   0.84102
 1266  C   1.10479   0.72477   0.79426   0.87718
 1267  O   1.88386   1.53289   1.36170   1.88316
 1268  N   1.54285   1.48764   1.35139   1.14853
 1269  H   0.67726
 1270  C   1.07289   1.11774   0.96773   0.82273
 1271  H   0.80321
 1272  C   1.05753   1.08930   1.02714   1.14988
 1273  H   0.83885
 1274  H   0.82117
 1275  C   1.06413   0.97799   0.94950   0.96813
 1276  C   1.08276   1.02004   0.99423   1.05887
 1277  H   0.83984
 1278  C   1.08233   1.04735   1.02792   0.99829
 1279  H   0.84485
 1280  C   1.08127   1.00694   1.05590   1.02572
 1281  H   0.84962
 1282  C   1.08065   1.02418   1.00322   1.05459
 1283  H   0.85463
 1284  C   1.08295   1.05884   1.02602   0.99542
 1285  H   0.84050
 1286  C   1.08028   0.76632   0.78594   0.79870
 1287  O   1.88388   1.53903   1.68007   1.53346
 1288  N   1.53645   1.17570   1.34794   1.43192
 1289  H   0.67347
 1290  C   1.05812   1.14248   0.97652   0.99795
 1291  H   0.81421
 1292  H   0.78753
 1293  C   1.07328   0.78347   0.75112   0.80156
 1294  O   1.87390   1.55192   1.39523   1.84419
 1295  N   1.53533   1.40729   1.37306   1.17669
 1296  H   0.64917
 1297  C   1.07463   1.00333   1.20038   0.87792
 1298  H   0.80971
 1299  H   0.79354
 1300  C   1.08151   0.77439   0.74541   0.80726
 1301  O   1.88287   1.52178   1.53271   1.73151
 1302  N   1.56493   1.44458   1.16629   1.26716
 1303  C   1.07049   1.06939   0.86874   1.05609
 1304  H   0.83720
 1305  H   0.83917
 1306  C   1.05716   1.04733   1.13708   1.05944
 1307  H   0.84577
 1308  H   0.80741
 1309  C   1.06098   1.08151   0.98344   1.17220
 1310  H   0.83490
 1311  H   0.81961
 1312  C   1.07348   1.05253   1.00100   0.86792
 1313  H   0.81330
 1314  C   1.08820   0.76354   0.76815   0.82853
 1315  O   1.88394   1.42706   1.43534   1.88335
 1316  N   1.54312   1.40350   1.48390   1.11751
 1317  H   0.64356
 1318  C   1.08219   1.04961   1.11420   0.89125
 1319  H   0.80083
 1320  H   0.78746
 1321  C   1.08832   0.82549   0.73021   0.77831
 1322  O   1.88489   1.70338   1.72972   1.32973
 1323  N   1.55109   1.23224   1.41108   1.34481
 1324  H   0.68809
 1325  C   1.07569   0.86014   1.06401   0.97853
 1326  H   0.82216
 1327  C   1.05962   1.16895   1.07553   0.97641
 1328  H   0.83466
 1329  H   0.83901
 1330  C   1.05817   1.13846   1.07476   1.02401
 1331  H   0.82456
 1332  H   0.87161
 1333  C   1.06376   1.08744   1.10004   0.78144
 1334  H   0.85058
 1335  H   0.81933
 1336  N   1.53282   1.62695   1.28989   1.09343
 1337  H   0.64881
 1338  C   0.97600   0.83629   0.80289   0.79448
 1339  N   1.50146   1.56333   1.25850   1.24811
 1340  H   0.67469
 1341  H   0.62633
 1342  N   1.50407   1.55703   1.35356   1.14116
 1343  H   0.64456
 1344  H   0.63718
 1345  C   1.08260   0.75724   0.77365   0.84378
 1346  O   1.88767   1.48042   1.64693   1.56786
 1347  N   1.54278   1.54537   1.19736   1.23992
 1348  H   0.67313
 1349  C   1.08983   1.00070   1.00992   0.91966
 1350  H   0.80126
 1351  C   1.08549   0.92961   0.92508   0.87612
 1352  H   0.85365
 1353  C   1.05855   1.09857   1.12843   1.20492
 1354  H   0.82511
 1355  H   0.83282
 1356  H   0.83070
 1357  O   1.84269   1.58486   1.64157   1.57001
 1358  H   0.62383
 1359  C   1.07893   0.81067   0.79049   0.76037
 1360  O   1.88679   1.54077   1.79384   1.37412
 1361  N   1.55263   1.32700   1.29565   1.37661
 1362  H   0.65205
 1363  C   1.07402   0.98876   0.92725   0.99353
 1364  H   0.81737
 1365  C   1.05780   1.09514   1.06813   1.08703
 1366  H   0.84159
 1367  H   0.82719
 1368  C   1.06150   0.97141   0.97489   1.05674
 1369  C   1.08267   0.97336   1.07955   0.99663
 1370  H   0.84507
 1371  C   1.08390   1.08323   0.99456   1.00620
 1372  H   0.80315
 1373  C   1.06600   0.82510   0.89634   0.91666
 1374  O   1.84111   1.47117   1.54240   1.69699
 1375  H   0.63889
 1376  C   1.07391   0.99042   1.09183   1.06881
 1377  H   0.84713
 1378  C   1.08132   1.06395   0.99915   0.99888
 1379  H   0.85844
 1380  C   1.08198   0.77628   0.73395   0.82099
 1381  O   1.88474   1.39062   1.55616   1.82939
 1382  N   1.55037   1.20063   1.60171   1.14812
 1383  H   0.66082
 1384  C   1.08720   1.11698   1.03490   0.83751
 1385  H   0.82142
 1386  C   1.08253   0.83231   0.89064   1.00018
 1387  H   0.86801
 1388  C   1.05719   1.09875   1.14108   1.18973
 1389  H   0.83111
 1390  H   0.84549
 1391  H   0.84166
 1392  O   1.84707   1.32375   1.76605   1.66682
 1393  H   0.61663
 1394  C   1.08206   0.82813   0.76378   0.79201
 1395  O   1.88730   1.29172   1.70649   1.67742
 1396  N   1.54293   1.22801   1.27094   1.47586
 1397  H   0.64942
 1398  C   1.07062   0.98385   1.04057   1.07618
 1399  H   0.84417
 1400  H   0.80862
 1401  C   1.07034   0.85081   0.72015   0.75153
 1402  O   1.88495   1.70083   1.45759   1.55943
 1403  N   1.55354   1.14731   1.51371   1.33255
 1404  H   0.68001
 1405  C   1.07058   0.82926   0.98701   1.12852
 1406  H   0.81433
 1407  C   1.05338   1.16404   0.99041   1.05258
 1408  H   0.83945
 1409  H   0.83671
 1410  C   1.05973   1.20528   1.01140   1.13808
 1411  H   0.84310
 1412  H   0.82574
 1413  C   1.06674   0.72291   0.72045   0.72786
 1414  O   1.88755   1.47385   1.82367   1.63729
 1415  O   1.88502   1.51752   1.58574   1.81387
 1416  C   1.08688   0.77118   0.86268   0.75465
 1417  O   1.88733   1.64848   1.65297   1.40930
 1418  N   1.54586   1.31030   1.19194   1.47859
 1419  H   0.65322
 1420  C   1.07213   1.06278   0.88124   1.00739
 1421  H   0.84355
 1422  C   1.05449   1.01865   1.03228   0.97099
 1423  H   0.83629
 1424  C   1.05592   1.17746   1.04877   1.19326
 1425  H   0.84535
 1426  H   0.83578
 1427  H   0.83807
 1428  C   1.05455   1.18134   1.16762   1.06130
 1429  H   0.84067
 1430  H   0.83979
 1431  H   0.85194
 1432  C   1.07578   0.77107   0.73158   0.84228
 1433  O   1.88366   1.36389   1.63739   1.76955
 1434  N   1.53828   1.27321   1.47281   1.21099
 1435  H   0.66883
 1436  C   1.07708   1.00719   1.05469   0.86824
 1437  H   0.82278
 1438  C   1.06067   1.02652   1.01604   0.97679
 1439  H   0.84025
 1440  C   1.05420   1.18426   1.09822   1.12138
 1441  H   0.84094
 1442  H   0.84059
 1443  H   0.85068
 1444  C   1.05735   1.18977   1.16644   1.05251
 1445  H   0.84654
 1446  H   0.83517
 1447  H   0.83904
 1448  C   1.08159   0.80665   0.78642   0.75121
 1449  O   1.88319   1.81144   1.47305   1.46006
 1450  N   1.53606   1.23702   1.43139   1.31675
 1451  H   0.66489
 1452  C   1.07958   0.90439   0.96829   1.14843
 1453  H   0.80495
 1454  C   1.07968   0.93556   0.82476   0.98273
 1455  H   0.86735
 1456  C   1.05746   1.09504   1.13581   1.19630
 1457  H   0.82460
 1458  H   0.82199
 1459  H   0.84137
 1460  O   1.84759   1.47778   1.49374   1.78179
 1461  H   0.64862
 1462  C   1.07069   0.75365   0.82648   0.79808
 1463  O   1.88053   1.50742   1.88268   1.36458
 1464  N   1.53714   1.55005   1.12174   1.29441
 1465  H   0.65697
 1466  C   1.05411   1.16781   0.87310   1.13590
 1467  H   0.83023
 1468  H   0.83658
 1469  H   0.85121
 1470  H   0.82726
 1471  C   1.10850   0.72193   0.77563   0.90301
 1472  O   1.87917   1.50018   1.39715   1.89103
 1473  N   1.54809   1.50775   1.35868   1.13692
 1474  H   0.67068
 1475  C   1.07820   1.08326   1.04079   0.80198
 1476  H   0.80361
 1477  C   1.05901   1.13419   0.99959   1.10165
 1478  H   0.81863
 1479  H   0.82210
 1480  C   1.06594   0.97598   0.99298   1.00552
 1481  C   1.08233   0.99067   1.02468   1.00448
 1482  H   0.83753
 1483  C   1.07635   1.10514   1.04982   1.06624
 1484  H   0.82022
 1485  C   1.07254   0.88635   0.88193   0.87960
 1486  O   1.83870   1.35503   1.61290   1.73270
 1487  H   0.61906
 1488  C   1.07845   0.98877   1.10011   1.09726
 1489  H   0.82142
 1490  C   1.08819   1.07863   0.97883   0.96896
 1491  H   0.83520
 1492  C   1.08083   0.79997   0.76889   0.79201
 1493  O   1.88630   1.81383   1.69954   1.28028
 1494  N   1.53470   1.25584   1.50888   1.18460
 1495  H   0.67095
 1496  C   1.06143   0.92031   1.08958   1.16684
 1497  H   0.83435
 1498  H   0.82966
 1499  H   0.83839
 1500  H   0.82484
 1501  C   1.10804   0.78633   0.88374   0.71615
 1502  O   1.88011   1.43048   1.87065   1.50906
 1503  N   1.55069   1.37513   1.18534   1.44528
 1504  H   0.64442
 1505  C   1.07867   0.96582   0.86326   1.12907
 1506  H   0.81497
 1507  C   1.05975   0.97983   0.99672   1.07645
 1508  H   0.84632
 1509  C   1.05206   1.15827   1.06262   1.17606
 1510  H   0.84452
 1511  H   0.84462
 1512  H   0.84163
 1513  C   1.04784   0.99997   1.12970   1.08490
 1514  H   0.86686
 1515  H   0.85351
 1516  C   1.04905   1.11602   1.12947   1.14955
 1517  H   0.85886
 1518  H   0.85754
 1519  H   0.84095
 1520  C   1.07238   0.85954   0.73800   0.75027
 1521  O   1.87627   1.57598   1.55600   1.67378
 1522  N   1.54217   1.18501   1.41738   1.37460
 1523  H   0.66204
 1524  C   1.07135   0.87891   1.16329   1.10827
 1525  H   0.84313
 1526  H   0.83224
 1527  H   0.83416
 1528  H   0.82768
 1529  C   1.10760   0.84804   0.73304   0.82097
 1530  O   1.88535   1.81628   1.62614   1.36647
 1531  N   1.53784   1.25350   1.40321   1.30545
 1532  H   0.64778
 1533  C   1.05910   0.89172   1.04060   1.02414
 1534  H   0.81956
 1535  C   1.06068   1.03218   1.11454   1.11506
 1536  H   0.82463
 1537  H   0.84727
 1538  C   1.04448   0.99029   0.96334   1.05944
 1539  H   0.88110
 1540  C   1.05460   1.16332   1.06806   1.18090
 1541  H   0.83784
 1542  H   0.84768
 1543  H   0.85387
 1544  C   1.05260   1.12344   1.17278   1.10838
 1545  H   0.85715
 1546  H   0.84698
 1547  H   0.84103
 1548  C   1.07866   0.72947   0.86480   0.77482
 1549  O   1.88189   1.57535   1.45121   1.73523
 1550  N   1.54004   1.57302   1.21246   1.19381
 1551  H   0.66144
 1552  C   1.07184   1.01906   0.93498   0.96184
 1553  H   0.81156
 1554  C   1.05667   1.17075   1.07945   0.99157
 1555  H   0.82418
 1556  H   0.82597
 1557  C   1.05681   1.13003   1.08800   1.03636
 1558  H   0.85317
 1559  H   0.82410
 1560  C   1.06362   1.15818   0.94485   0.90193
 1561  H   0.81632
 1562  H   0.83550
 1563  N   1.52416   1.16146   1.42475   1.39819
 1564  H   0.63978
 1565  C   0.99143   0.79128   0.81235   0.81837
 1566  N   1.51719   1.11634   1.46807   1.48665
 1567  H   0.65572
 1568  H   0.63931
 1569  N   1.50868   1.25121   1.39993   1.41138
 1570  H   0.64202
 1571  H   0.64048
 1572  C   1.08176   0.87181   0.77076   0.74347
 1573  O   1.88710   1.61005   1.60128   1.53043
 1574  N   1.53976   1.17482   1.27121   1.51454
 1575  H   0.65670
 1576  C   1.07439   0.85635   1.08635   1.03950
 1577  H   0.82229
 1578  C   1.06142   1.16476   1.09835   0.98346
 1579  H   0.84191
 1580  H   0.83791
 1581  C   1.04766   1.08164   0.96036   0.94861
 1582  H   0.86921
 1583  C   1.05592   1.17137   1.16316   1.07741
 1584  H   0.85452
 1585  H   0.86097
 1586  H   0.84666
 1587  C   1.05680   1.15792   1.09218   1.15805
 1588  H   0.85120
 1589  H   0.86060
 1590  H   0.84532
 1591  C   1.08284   0.71500   0.76197   0.70282
 1592  O   1.88398   1.46778   1.86989   1.62374
 1593  O   1.88774   1.54642   1.59307   1.80227

 **********************
 *                    *
 * JOB ENDED NORMALLY *
 *                    *
 **********************



 TOTAL JOB TIME:          2959.25 SECONDS

 == MOPAC DONE ==
