 *******************************************************************************
 **                                                                           **
 **                              MOPAC v23.2.2                                **
 **                                                                           **
 *******************************************************************************
 **          Digital Object Identifier (DOI): 10.5281/zenodo.6511958          **
 **    Visit the DOI location for information on how to cite this program.    **
 *******************************************************************************

                              PM7 CALCULATION RESULTS

 *******************************************************************************
 *  CALCULATION DONE: (MAX THREADS = 24)             Thu Jan 22 17:59:35 2026  *
 *  PM7        - The PM7 Hamiltonian to be used
 *
 *
 *
 *                 CHARGE ON SYSTEM = +2
 *
 *
 *
 *  EPS=78.4   - USE ANDREAS KLAMT'S COSMO IMPLICIT SOLVATION MODEL
 *  XYZ        - CARTESIAN COORDINATE SYSTEM TO BE USED
 *  1SCF       - DO 1 SCF AND THEN STOP 
 *  T=         - A TIME OF 172800.0 SECONDS REQUESTED
 *  DUMP=N     - RESTART FILE WRITTEN EVERY 7200.0 SECONDS REQUESTED
 *******************************************************************************
PM7 1SCF XYZ CHARGE=2 EPS=78.4


   ATOM   CHEMICAL          X               Y               Z
  NUMBER   SYMBOL      (ANGSTROMS)     (ANGSTROMS)     (ANGSTROMS)

     1       H         71.69100000  *  165.23700000  * -45.36000000  *
     2       C         70.72700000  *  165.64400000  * -45.02500000  *
     3       O         70.67100000  *  166.69300000  * -44.40000000  *
     4       N         69.64800000  *  164.94600000  * -45.35400000  *
     5       H         69.74300000  *  164.08600000  * -45.86500000  *
     6       C         68.31800000  *  165.37700000  * -44.95100000  *
     7       H         68.30400000  *  166.44500000  * -44.75000000  *
     8       C         67.27900000  *  165.08100000  * -46.05800000  *
     9       H         67.27200000  *  164.02200000  * -46.29800000  *
    10       C         65.89200000  *  165.46600000  * -45.59200000  *
    11       H         65.46400000  *  166.22900000  * -46.24500000  *
    12       H         65.23700000  *  164.60600000  * -45.62700000  *
    13       H         65.87600000  *  165.89500000  * -44.58400000  *
    14       C         67.63700000  *  165.85600000  * -47.31700000  *
    15       H         68.59400000  *  165.52900000  * -47.70800000  *
    16       H         66.87900000  *  165.66900000  * -48.07700000  *
    17       H         67.68800000  *  166.92100000  * -47.10100000  *
    18       C         67.91500000  *  164.66400000  * -43.65700000  *
    19       O         67.55300000  *  165.30600000  * -42.67600000  *
    20       N         67.98400000  *  163.33800000  * -43.65800000  *
    21       H         68.28400000  *  162.85200000  * -44.48600000  *
    22       C         67.62300000  *  162.54400000  * -42.48700000  *
    23       H         67.90600000  *  163.07600000  * -41.58100000  *
    24       C         66.12800000  *  162.23500000  * -42.45900000  *
    25       H         65.92600000  *  161.47400000  * -43.20900000  *
    26       H         65.88500000  *  161.80700000  * -41.48800000  *
    27       C         65.21300000  *  163.39800000  * -42.74000000  *
    28       H         65.33100000  *  164.15700000  * -41.96400000  *
    29       H         65.45900000  *  163.81400000  * -43.69700000  *
    30       C         63.76600000  *  162.97200000  * -42.82400000  *
    31       O         63.44700000  *  162.11400000  * -43.67900000  *
    32       O         62.94800000  *  163.49400000  * -42.03400000  *
    33       C         68.34700000  *  161.22200000  * -42.57700000  *
    34       O         68.73000000  *  160.78800000  * -43.66100000  *
    35       N         68.52400000  *  160.57500000  * -41.43500000  *
    36       H         68.03000000  *  160.89100000  * -40.60600000  *
    37       C         69.17300000  *  159.28200000  * -41.42100000  *
    38       H         69.95100000  *  159.22100000  * -42.17800000  *
    39       C         69.75600000  *  159.01000000  * -40.03200000  *
    40       H         70.21900000  *  159.94300000  * -39.71800000  *
    41       H         68.96300000  *  158.79100000  * -39.31600000  *
    42       C         70.79800000  *  157.89600000  * -39.98300000  *
    43       H         70.31100000  *  156.94100000  * -40.17400000  *
    44       H         71.53800000  *  158.07300000  * -40.76900000  *
    45       C         71.50100000  *  157.83200000  * -38.61800000  *
    46       H         70.74900000  *  157.59000000  * -37.86000000  *
    47       H         72.23100000  *  157.01800000  * -38.63800000  *
    48       C         72.18600000  *  159.16200000  * -38.26900000  *
    49       H         72.83200000  *  159.42500000  * -39.10900000  *
    50       H         71.41200000  *  159.93100000  * -38.15600000  *
    51       N         73.00000000  *  159.10500000  * -37.02500000  *
    52       H         73.70000000  *  158.37000000  * -37.07400000  *
    53       H         73.43800000  *  159.98800000  * -36.79300000  *
    54       H         72.39100000  *  158.85400000  * -36.25100000  *
    55       C         68.06200000  *  158.28700000  * -41.74800000  *
    56       O         67.16300000  *  158.08100000  * -40.94600000  *
    57       N         68.04100000  *  157.74300000  * -42.97000000  *
    58       H         68.83500000  *  157.91300000  * -43.56700000  *
    59       C         67.06500000  *  156.71200000  * -43.39100000  *
    60       H         66.06600000  *  157.15100000  * -43.37500000  *
    61       C         67.34700000  *  156.20900000  * -44.82500000  *
    62       H         68.42300000  *  156.09400000  * -44.95300000  *
    63       C         66.69000000  *  154.85600000  * -45.12500000  *
    64       H         65.61100000  *  154.91400000  * -44.98000000  *
    65       H         66.89800000  *  154.58500000  * -46.15200000  *
    66       H         67.10200000  *  154.06800000  * -44.49600000  *
    67       C         66.83500000  *  157.25100000  * -45.83200000  *
    68       H         65.74400000  *  157.26400000  * -45.82500000  *
    69       H         67.17500000  *  158.22300000  * -45.49500000  *
    70       C         67.32400000  *  157.03700000  * -47.27200000  *
    71       H         66.86600000  *  156.15200000  * -47.70900000  *
    72       H         67.04700000  *  157.89800000  * -47.87800000  *
    73       H         68.40600000  *  156.93200000  * -47.28900000  *
    74       C         67.05500000  *  155.56600000  * -42.38200000  *
    75       O         65.99300000  *  155.14600000  * -41.91700000  *
    76       N         68.24900000  *  155.10100000  * -42.01400000  *
    77       H         69.08300000  *  155.48100000  * -42.44800000  *
    78       C         68.41600000  *  154.15100000  * -40.93200000  *
    79       H         68.37000000  *  154.68500000  * -39.98200000  *
    80       H         67.60000000  *  153.42700000  * -40.95600000  *
    81       C         69.73400000  *  153.39900000  * -40.98500000  *
    82       O         70.75100000  *  153.86200000  * -41.50800000  *
    83       N         69.69800000  *  152.23600000  * -40.35300000  *
    84       H         68.80800000  *  151.92800000  * -39.99000000  *
    85       C         70.87100000  *  151.53300000  * -39.86200000  *
    86       H         71.75400000  *  152.16300000  * -39.97500000  *
    87       C         70.66400000  *  151.27300000  * -38.36300000  *
    88       H         69.84700000  *  150.56400000  * -38.22300000  *
    89       H         71.58600000  *  150.84300000  * -38.00000000  *
    90       C         70.37600000  *  152.55000000  * -37.54800000  *
    91       H         71.20100000  *  153.25200000  * -37.68900000  *
    92       H         69.47200000  *  153.03500000  * -37.92200000  *
    93       C         70.17600000  *  152.26600000  * -36.05100000  *
    94       O         69.21600000  *  151.55000000  * -35.68600000  *
    95       O         70.92700000  *  152.83400000  * -35.22400000  *
    96       C         71.08500000  *  150.25600000  * -40.68600000  *
    97       O         70.37100000  *  149.26300000  * -40.52400000  *
    98       N         71.99200000  *  150.32400000  * -41.66300000  *
    99       H         72.61000000  *  151.12800000  * -41.70600000  *
   100       C         72.14400000  *  149.31000000  * -42.70800000  *
   101       H         71.15700000  *  148.97400000  * -43.02900000  *
   102       H         72.63100000  *  149.77600000  * -43.56400000  *
   103       C         72.96200000  *  148.07800000  * -42.30800000  *
   104       O         73.47700000  *  147.95500000  * -41.19800000  *
   105       N         73.13700000  *  147.17600000  * -43.27400000  *
   106       H         72.67000000  *  147.32600000  * -44.16000000  *
   107       C         73.96900000  *  145.95700000  * -43.18400000  *
   108       H         73.69200000  *  145.39800000  * -42.29000000  *
   109       C         73.71600000  *  145.06400000  * -44.41100000  *
   110       H         74.47100000  *  144.27900000  * -44.46400000  *
   111       C         72.34100000  *  144.41000000  * -44.35200000  *
   112       H         71.55500000  *  145.16700000  * -44.37000000  *
   113       H         72.22600000  *  143.74500000  * -45.20800000  *
   114       H         72.26900000  *  143.81500000  * -43.44300000  *
   115       O         73.78200000  *  145.86000000  * -45.56800000  *
   116       H         73.26400000  *  145.42300000  * -46.28200000  *
   117       C         75.47500000  *  146.22700000  * -43.09900000  *
   118       O         76.18900000  *  145.40600000  * -42.52800000  *
   119       N         75.94600000  *  147.36700000  * -43.62600000  *
   120       H         75.28000000  *  147.92400000  * -44.13600000  *
   121       C         77.37200000  *  147.72800000  * -43.74700000  *
   122       H         77.97000000  *  147.06900000  * -43.11600000  *
   123       C         77.82000000  *  147.52600000  * -45.20700000  *
   124       H         77.22800000  *  148.17800000  * -45.85000000  *
   125       H         78.86400000  *  147.82400000  * -45.30700000  *
   126       C         77.72300000  *  146.10800000  * -45.71000000  *
   127       C         78.65400000  *  145.15600000  * -45.25900000  *
   128       H         79.44700000  *  145.44800000  * -44.58100000  *
   129       C         78.54000000  *  143.82000000  * -45.67200000  *
   130       H         79.25000000  *  143.09500000  * -45.30800000  *
   131       C         77.49100000  *  143.43700000  * -46.53500000  *
   132       O         77.33700000  *  142.13700000  * -46.87900000  *
   133       H         77.80700000  *  141.57200000  * -46.23600000  *
   134       C         76.57800000  *  144.39800000  * -47.01200000  *
   135       H         75.76700000  *  144.10200000  * -47.65800000  *
   136       C         76.70400000  *  145.73700000  * -46.60600000  *
   137       H         75.99200000  *  146.47100000  * -46.95400000  *
   138       C         77.71600000  *  149.16900000  * -43.32600000  *
   139       O         78.85700000  *  149.58700000  * -43.50600000  *
   140       N         76.77100000  *  149.95000000  * -42.79500000  *
   141       H         75.86100000  *  149.56500000  * -42.58900000  *
   142       C         76.98700000  *  151.36600000  * -42.47400000  *
   143       H         77.53700000  *  151.44700000  * -41.53900000  *
   144       H         77.59800000  *  151.81500000  * -43.24800000  *
   145       C         75.68700000  *  152.16100000  * -42.34200000  *
   146       O         74.62200000  *  151.57000000  * -42.14400000  *
   147       N         75.75500000  *  153.49500000  * -42.44900000  *
   148       H         76.58800000  *  153.89400000  * -42.85900000  *
   149       C         74.59200000  *  154.32600000  * -42.21200000  *
   150       H         73.82600000  *  153.78000000  * -41.65800000  *
   151       C         74.95900000  *  155.54800000  * -41.37000000  *
   152       H         75.70700000  *  156.13900000  * -41.89300000  *
   153       C         73.73100000  *  156.40900000  * -41.13300000  *
   154       H         72.94300000  *  155.80300000  * -40.68200000  *
   155       H         73.98600000  *  157.21200000  * -40.45000000  *
   156       H         73.36800000  *  156.84900000  * -42.06500000  *
   157       C         75.54500000  *  155.09600000  * -40.05300000  *
   158       H         76.46000000  *  154.52800000  * -40.19800000  *
   159       H         75.77700000  *  155.95300000  * -39.42300000  *
   160       H         74.80500000  *  154.48400000  * -39.53200000  *
   161       C         74.01900000  *  154.79200000  * -43.53700000  *
   162       O         74.76100000  *  155.18400000  * -44.43700000  *
   163       N         72.69900000  *  154.66500000  * -43.67700000  *
   164       H         72.14800000  *  154.34100000  * -42.88600000  *
   165       C         71.97500000  *  155.13700000  * -44.85600000  *
   166       H         72.69400000  *  155.26800000  * -45.65900000  *
   167       C         70.91800000  *  154.14100000  * -45.36300000  *
   168       H         70.01700000  *  154.20200000  * -44.75200000  *
   169       C         70.56500000  *  154.51400000  * -46.81100000  *
   170       H         71.45500000  *  154.48800000  * -47.43900000  *
   171       H         69.83500000  *  153.81800000  * -47.21600000  *
   172       H         70.14000000  *  155.51400000  * -46.85000000  *
   173       C         71.44100000  *  152.70100000  * -45.30400000  *
   174       H         72.47000000  *  152.67500000  * -45.65000000  *
   175       H         71.40100000  *  152.34300000  * -44.27400000  *
   176       H         70.82800000  *  152.04700000  * -45.92100000  *
   177       C         71.35000000  *  156.48500000  * -44.54800000  *
   178       O         70.59500000  *  156.60800000  * -43.57900000  *
   179       N         71.62500000  *  157.49000000  * -45.37400000  *
   180       H         72.23900000  *  157.32200000  * -46.16900000  *
   181       C         71.01800000  *  158.79600000  * -45.21900000  *
   182       H         70.37900000  *  158.84300000  * -44.33800000  *
   183       C         72.10000000  *  159.86100000  * -45.06900000  *
   184       H         72.79900000  *  159.78100000  * -45.90500000  *
   185       H         71.63400000  *  160.84400000  * -45.14300000  *
   186       C         72.87100000  *  159.84300000  * -43.76800000  *
   187       C         72.34700000  *  160.43100000  * -42.61900000  *
   188       H         71.37700000  *  160.90600000  * -42.66800000  *
   189       C         73.06400000  *  160.45200000  * -41.42500000  *
   190       H         72.63300000  *  160.94600000  * -40.56800000  *
   191       C         74.33000000  *  159.87400000  * -41.37100000  *
   192       O         75.04700000  *  159.90100000  * -40.18700000  *
   193       H         74.69700000  *  160.54100000  * -39.56800000  *
   194       C         74.87500000  *  159.27800000  * -42.50300000  *
   195       H         75.78500000  *  158.71900000  * -42.41900000  *
   196       C         74.14000000  *  159.26700000  * -43.69600000  *
   197       H         74.51800000  *  158.73300000  * -44.56500000  *
   198       C         70.16700000  *  159.17400000  * -46.42900000  *
   199       O         70.41800000  *  158.72400000  * -47.55600000  *
   200       N         69.03200000  *  159.83700000  * -46.21300000  *
   201       H         68.84400000  *  160.14400000  * -45.26500000  *
   202       C         68.29400000  *  160.51000000  * -47.28200000  *
   203       H         68.28600000  *  159.90700000  * -48.19200000  *
   204       C         66.84800000  *  160.82800000  * -46.84700000  *
   205       H         66.33600000  *  159.90500000  * -46.58700000  *
   206       H         66.86500000  *  161.46700000  * -45.96200000  *
   207       C         66.03400000  *  161.51200000  * -47.95700000  *
   208       H         66.51100000  *  162.45100000  * -48.24100000  *
   209       H         65.99600000  *  160.85700000  * -48.82800000  *
   210       C         64.60500000  *  161.80200000  * -47.47000000  *
   211       H         64.13700000  *  160.87000000  * -47.14800000  *
   212       H         64.65000000  *  162.48400000  * -46.61900000  *
   213       C         63.76600000  *  162.43000000  * -48.59200000  *
   214       H         64.29900000  *  163.30300000  * -48.98200000  *
   215       H         63.67300000  *  161.70000000  * -49.40400000  *
   216       N         62.41800000  *  162.83600000  * -48.11300000  *
   217       H         62.48000000  *  163.53200000  * -47.38300000  *
   218       H         61.86900000  *  163.24000000  * -48.86000000  *
   219       H         61.90100000  *  162.05100000  * -47.74200000  *
   220       C         69.09600000  *  161.76800000  * -47.51100000  *
   221       O         69.32200000  *  162.50400000  * -46.55400000  *
   222       N         69.55500000  *  162.00600000  * -48.72500000  *
   223       H         69.34400000  *  161.34200000  * -49.46700000  *
   224       C         70.34900000  *  163.18200000  * -49.01700000  *
   225       H         70.22500000  *  163.93500000  * -48.24000000  *
   226       C         71.81400000  *  162.79200000  * -49.07000000  *
   227       H         71.97800000  *  162.06700000  * -49.86400000  *
   228       H         72.42900000  *  163.67700000  * -49.23900000  *
   229       H         72.10500000  *  162.33200000  * -48.12600000  *
   230       C         69.94400000  *  163.83800000  * -50.32200000  *
   231       O         69.22100000  *  163.25100000  * -51.12800000  *
   232       N         70.40700000  *  165.06400000  * -50.52400000  *
   233       H         70.93200000  *  165.53000000  * -49.79600000  *
   234       C         70.10800000  *  165.77900000  * -51.74600000  *
   235       H         69.54100000  *  165.15900000  * -52.44400000  *
   236       H         69.52200000  *  166.69100000  * -51.53000000  *
   237       H         71.05900000  *  166.04700000  * -52.23900000  *
   238       H         68.08600000  *  164.80700000  * -56.55000000  *
   239       C         68.21200000  *  164.39600000  * -55.53600000  *
   240       O         69.28600000  *  164.50800000  * -54.94200000  *
   241       N         67.13500000  *  163.82300000  * -55.01100000  *
   242       H         66.34000000  *  163.66800000  * -55.61500000  *
   243       C         67.13600000  *  163.21200000  * -53.68800000  *
   244       H         67.86300000  *  163.70700000  * -53.05000000  *
   245       C         65.75500000  *  163.32300000  * -53.02900000  *
   246       H         64.97700000  *  163.06900000  * -53.75000000  *
   247       C         65.64800000  *  162.36600000  * -51.85200000  *
   248       H         66.47200000  *  162.51800000  * -51.15200000  *
   249       H         64.69700000  *  162.53800000  * -51.34700000  *
   250       H         65.65200000  *  161.33900000  * -52.20000000  *
   251       C         65.54000000  *  164.75000000  * -52.56600000  *
   252       H         65.62600000  *  165.42400000  * -53.41600000  *
   253       H         64.53500000  *  164.85100000  * -52.15900000  *
   254       H         66.28400000  *  165.00300000  * -51.81000000  *
   255       C         67.52600000  *  161.76000000  * -53.84700000  *
   256       O         66.97900000  *  161.02800000  * -54.68200000  *
   257       N         68.49600000  *  161.34900000  * -53.04800000  *
   258       H         68.91100000  *  161.99700000  * -52.39100000  *
   259       C         69.01100000  *  159.99200000  * -53.10200000  *
   260       H         68.34600000  *  159.34100000  * -53.67900000  *
   261       C         70.37400000  *  159.97400000  * -53.81600000  *
   262       H         70.77500000  *  158.96500000  * -53.87500000  *
   263       C         70.21400000  *  160.50700000  * -55.21300000  *
   264       H         69.95700000  *  161.56600000  * -55.19000000  *
   265       H         71.15100000  *  160.39100000  * -55.75600000  *
   266       H         69.44200000  *  159.95000000  * -55.73600000  *
   267       C         71.37900000  *  160.85000000  * -53.05700000  *
   268       H         71.56500000  *  160.44500000  * -52.06400000  *
   269       H         72.31500000  *  160.84900000  * -53.61300000  *
   270       H         71.03600000  *  161.88400000  * -52.98400000  *
   271       C         69.19200000  *  159.37200000  * -51.72900000  *
   272       O         69.02000000  *  160.03600000  * -50.68600000  *
   273       N         69.38700000  *  158.06000000  * -51.70900000  *
   274       H         69.46900000  *  157.57000000  * -52.59500000  *
   275       C         69.76000000  *  157.31900000  * -50.52000000  *
   276       H         69.47300000  *  157.87400000  * -49.62800000  *
   277       C         69.00800000  *  155.99600000  * -50.50400000  *
   278       H         69.23800000  *  155.44200000  * -51.41200000  *
   279       H         69.30600000  *  155.41100000  * -49.63300000  *
   280       H         67.93600000  *  156.19000000  * -50.45600000  *
   281       C         71.27900000  *  157.14300000  * -50.54200000  *
   282       O         71.81600000  *  156.46900000  * -51.42600000  *
   283       N         71.97000000  *  157.79100000  * -49.60300000  *
   284       H         71.44500000  *  158.28300000  * -48.88900000  *
   285       C         73.41300000  *  157.73400000  * -49.53500000  *
   286       H         73.80300000  *  157.43200000  * -50.50200000  *
   287       C         73.96100000  *  159.11400000  * -49.18200000  *
   288       H         73.49200000  *  159.84000000  * -49.85100000  *
   289       H         73.62800000  *  159.35800000  * -48.16900000  *
   290       C         75.47300000  *  159.31600000  * -49.26600000  *
   291       H         75.96900000  *  158.63700000  * -48.57100000  *
   292       C         75.94900000  *  159.02000000  * -50.68400000  *
   293       H         75.44100000  *  159.71800000  * -51.34800000  *
   294       H         77.02400000  *  159.18800000  * -50.76300000  *
   295       H         75.74700000  *  157.98700000  * -50.96800000  *
   296       C         75.80400000  *  160.74000000  * -48.87900000  *
   297       H         75.43700000  *  160.94600000  * -47.87600000  *
   298       H         76.88200000  *  160.87900000  * -48.92200000  *
   299       H         75.32000000  *  161.42900000  * -49.57600000  *
   300       C         73.82100000  *  156.71600000  * -48.48500000  *
   301       O         73.39600000  *  156.78100000  * -47.33400000  *
   302       N         74.63900000  *  155.74700000  * -48.89000000  *
   303       H         74.87500000  *  155.73100000  * -49.88000000  *
   304       C         75.13800000  *  154.63100000  * -48.07500000  *
   305       H         74.61100000  *  154.58900000  * -47.12000000  *
   306       C         74.89100000  *  153.32800000  * -48.87400000  *
   307       H         74.44000000  *  153.58000000  * -49.83500000  *
   308       H         75.83500000  *  152.82800000  * -49.09000000  *
   309       C         73.95100000  *  152.30900000  * -48.23200000  *
   310       H         73.07400000  *  152.82000000  * -47.83700000  *
   311       H         73.61600000  *  151.64700000  * -49.03000000  *
   312       C         74.63800000  *  151.47600000  * -47.13500000  *
   313       H         75.60400000  *  151.11700000  * -47.49400000  *
   314       H         74.82100000  *  152.11200000  * -46.26600000  *
   315       C         73.78200000  *  150.26800000  * -46.71200000  *
   316       H         74.26700000  *  149.79100000  * -45.85400000  *
   317       H         72.80300000  *  150.62900000  * -46.37800000  *
   318       N         73.61500000  *  149.28200000  * -47.81800000  *
   319       H         74.50200000  *  148.92000000  * -48.14500000  *
   320       H         73.04400000  *  148.47500000  * -47.53300000  *
   321       H         73.13100000  *  149.69400000  * -48.60600000  *
   322       C         76.62600000  *  154.85700000  * -47.80100000  *
   323       O         77.42200000  *  154.70600000  * -48.71900000  *
   324       N         77.01700000  *  155.22600000  * -46.58100000  *
   325       H         76.29800000  *  155.26800000  * -45.86500000  *
   326       C         78.42200000  *  155.28900000  * -46.15900000  *
   327       H         79.06600000  *  155.59300000  * -46.98900000  *
   328       C         78.56700000  *  156.26000000  * -44.97900000  *
   329       H         78.02700000  *  155.87500000  * -44.10900000  *
   330       H         79.62500000  *  156.33900000  * -44.73000000  *
   331       C         78.01500000  *  157.64300000  * -45.34000000  *
   332       H         78.45100000  *  157.95800000  * -46.27300000  *
   333       H         76.93600000  *  157.57500000  * -45.50000000  *
   334       C         78.25100000  *  158.72500000  * -44.27900000  *
   335       H         77.97800000  *  159.68000000  * -44.73200000  *
   336       H         77.56000000  *  158.53300000  * -43.46900000  *
   337       C         79.67700000  *  158.85000000  * -43.70900000  *
   338       H         80.38400000  *  158.36300000  * -44.39700000  *
   339       H         79.95000000  *  159.91100000  * -43.68600000  *
   340       N         79.78800000  *  158.26900000  * -42.33500000  *
   341       H         79.63700000  *  157.26100000  * -42.37000000  *
   342       H         80.69600000  *  158.42600000  * -41.93200000  *
   343       H         79.10400000  *  158.64600000  * -41.70100000  *
   344       C         78.82300000  *  153.89100000  * -45.72900000  *
   345       O         78.09100000  *  153.31500000  * -44.93700000  *
   346       N         79.90700000  *  153.32000000  * -46.24700000  *
   347       H         80.40500000  *  153.76400000  * -47.01000000  *
   348       C         80.34300000  *  152.02200000  * -45.76800000  *
   349       H         79.49500000  *  151.49800000  * -45.35900000  *
   350       C         80.94400000  *  151.18600000  * -46.89500000  *
   351       H         81.78600000  *  151.78200000  * -47.16900000  *
   352       C         81.42400000  *  149.85200000  * -46.34500000  *
   353       H         80.65600000  *  149.35200000  * -45.75200000  *
   354       H         81.67900000  *  149.19900000  * -47.17900000  *
   355       H         82.34500000  *  149.95700000  * -45.76100000  *
   356       C         79.89700000  *  150.97600000  * -47.99700000  *
   357       H         79.60200000  *  151.87000000  * -48.50000000  *
   358       H         80.28300000  *  150.30500000  * -48.75000000  *
   359       C         78.59100000  *  150.36100000  * -47.52600000  *
   360       H         78.17700000  *  150.90100000  * -46.69000000  *
   361       H         77.89400000  *  150.33700000  * -48.36300000  *
   362       H         78.77100000  *  149.33300000  * -47.20900000  *
   363       C         81.33300000  *  152.07100000  * -44.61400000  *
   364       O         82.16700000  *  152.98000000  * -44.51900000  *
   365       N         81.21100000  *  151.07100000  * -43.74300000  *
   366       H         80.50300000  *  150.36100000  * -43.92800000  *
   367       C         82.04400000  *  150.90200000  * -42.55200000  *
   368       H         81.47500000  *  151.18100000  * -41.66300000  *
   369       H         82.35800000  *  149.86100000  * -42.45900000  *
   370       H         82.94700000  *  151.51400000  * -42.62000000  *
   371       H         81.25700000  *  144.04600000  * -57.89900000  *
   372       C         80.50000000  *  144.84100000  * -57.88800000  *
   373       O         79.71500000  *  144.99000000  * -58.82400000  *
   374       N         80.49900000  *  145.60300000  * -56.79700000  *
   375       H         81.28000000  *  145.52500000  * -56.16600000  *
   376       C         79.57000000  *  146.70600000  * -56.61200000  *
   377       H         78.57500000  *  146.34400000  * -56.42300000  *
   378       C         80.00500000  *  147.61000000  * -55.44200000  *
   379       H         80.89800000  *  148.18000000  * -55.68500000  *
   380       C         78.90600000  *  148.60800000  * -55.12500000  *
   381       H         77.92000000  *  148.14100000  * -55.17600000  *
   382       H         79.04500000  *  148.98700000  * -54.11600000  *
   383       H         78.93800000  *  149.43600000  * -55.83300000  *
   384       C         80.32100000  *  146.76200000  * -54.20900000  *
   385       H         81.19200000  *  146.13400000  * -54.40600000  *
   386       H         80.59400000  *  147.42200000  * -53.38900000  *
   387       C         79.18400000  *  145.87900000  * -53.76500000  *
   388       H         78.77800000  *  145.31100000  * -54.59400000  *
   389       H         79.50900000  *  145.12200000  * -53.06500000  *
   390       H         78.38800000  *  146.48300000  * -53.33500000  *
   391       C         79.54300000  *  147.54500000  * -57.87900000  *
   392       O         78.48200000  *  147.77900000  * -58.45100000  *
   393       N         80.72300000  *  147.98900000  * -58.30900000  *
   394       H         81.55800000  *  147.70100000  * -57.81200000  *
   395       C         80.85900000  *  148.80400000  * -59.51100000  *
   396       H         80.33900000  *  149.74600000  * -59.38600000  *
   397       H         81.92800000  *  148.98500000  * -59.72900000  *
   398       H         80.37800000  *  148.32200000  * -60.38100000  *
   399       H         78.96400000  *  146.08700000  * -61.65600000  *
   400       C         77.87300000  *  146.08700000  * -61.51600000  *
   401       O         77.11500000  *  145.89500000  * -62.46400000  *
   402       N         77.44600000  *  146.31800000  * -60.28000000  *
   403       H         78.13400000  *  146.42500000  * -59.54900000  *
   404       C         76.02800000  *  146.35200000  * -59.94500000  *
   405       H         75.53300000  *  145.47600000  * -60.35900000  *
   406       C         75.84100000  *  146.37400000  * -58.43100000  *
   407       H         76.20500000  *  147.30400000  * -58.01800000  *
   408       H         74.76300000  *  146.35700000  * -58.24200000  *
   409       C         76.47200000  *  145.22200000  * -57.65900000  *
   410       H         77.55000000  *  145.23900000  * -57.74900000  *
   411       C         76.08000000  *  145.34100000  * -56.19200000  *
   412       H         74.99900000  *  145.23000000  * -56.07700000  *
   413       H         76.57300000  *  144.55300000  * -55.62900000  *
   414       H         76.38500000  *  146.30900000  * -55.80100000  *
   415       C         75.99600000  *  143.89000000  * -58.23600000  *
   416       H         76.41500000  *  143.73000000  * -59.22900000  *
   417       H         76.32800000  *  143.07800000  * -57.59100000  *
   418       H         74.90500000  *  143.87400000  * -58.30500000  *
   419       C         75.32200000  *  147.55900000  * -60.54800000  *
   420       O         74.09500000  *  147.56800000  * -60.66200000  *
   421       N         76.08400000  *  148.63100000  * -60.82900000  *
   422       H         77.08200000  *  148.53500000  * -60.67700000  *
   423       C         75.60100000  *  149.83300000  * -61.53400000  *
   424       H         74.83700000  *  150.33500000  * -60.94100000  *
   425       H         76.43800000  *  150.53300000  * -61.75900000  *
   426       H         75.13800000  *  149.54900000  * -62.49200000  *
   427       H         62.79000000  *  145.77200000  * -59.27600000  *
   428       C         63.71000000  *  145.72000000  * -58.67500000  *
   429       O         63.77900000  *  145.02200000  * -57.66400000  *
   430       N         64.72400000  *  146.45200000  * -59.11400000  *
   431       H         64.63800000  *  147.05100000  * -59.92700000  *
   432       C         65.97100000  *  146.53500000  * -58.38100000  *
   433       H         65.88400000  *  146.09200000  * -57.38600000  *
   434       C         67.11600000  *  145.87700000  * -59.11400000  *
   435       H         67.33600000  *  146.42600000  * -60.03000000  *
   436       C         68.35100000  *  145.87800000  * -58.21400000  *
   437       H         68.14700000  *  145.31400000  * -57.31800000  *
   438       H         69.21000000  *  145.44500000  * -58.72400000  *
   439       H         68.64100000  *  146.89000000  * -57.94500000  *
   440       C         66.72800000  *  144.44400000  * -59.47800000  *
   441       H         66.54900000  *  143.87300000  * -58.56400000  *
   442       H         65.81500000  *  144.42400000  * -60.06800000  *
   443       C         67.77400000  *  143.72700000  * -60.29600000  *
   444       H         68.68300000  *  143.57700000  * -59.72200000  *
   445       H         67.37700000  *  142.75300000  * -60.59800000  *
   446       H         68.02300000  *  144.31300000  * -61.18000000  *
   447       C         66.29500000  *  148.01000000  * -58.22000000  *
   448       O         66.21200000  *  148.78000000  * -59.18400000  *
   449       N         66.56200000  *  148.43400000  * -56.98300000  *
   450       H         66.63000000  *  147.74800000  * -56.23600000  *
   451       C         66.90300000  *  149.82700000  * -56.67200000  *
   452       H         66.08300000  *  150.47200000  * -56.98200000  *
   453       C         67.11800000  *  150.00700000  * -55.16300000  *
   454       H         67.90900000  *  149.33400000  * -54.82900000  *
   455       C         67.50000000  *  151.43900000  * -54.77500000  *
   456       H         66.66800000  *  152.11500000  * -54.96600000  *
   457       H         67.74500000  *  151.47400000  * -53.71400000  *
   458       H         68.36600000  *  151.77500000  * -55.34100000  *
   459       C         65.83400000  *  149.67600000  * -54.40100000  *
   460       H         65.53000000  *  148.64700000  * -54.56800000  *
   461       H         66.03000000  *  149.79900000  * -53.34600000  *
   462       H         65.03000000  *  150.34100000  * -54.71100000  *
   463       C         68.15700000  *  150.21600000  * -57.45000000  *
   464       O         69.18900000  *  149.55000000  * -57.33100000  *
   465       N         68.08000000  *  151.28300000  * -58.25100000  *
   466       H         67.22500000  *  151.80400000  * -58.24500000  *
   467       C         69.18900000  *  151.69800000  * -59.08000000  *
   468       H         69.52500000  *  150.81900000  * -59.63900000  *
   469       C         68.73700000  *  152.76800000  * -60.08300000  *
   470       H         67.83400000  *  152.41100000  * -60.57900000  *
   471       H         68.47700000  *  153.68100000  * -59.53700000  *
   472       C         69.79100000  *  153.06900000  * -61.13100000  *
   473       H         70.72100000  *  153.35000000  * -60.64200000  *
   474       H         69.97400000  *  152.16800000  * -61.71600000  *
   475       C         69.35100000  *  154.17900000  * -62.08100000  *
   476       H         68.50200000  *  153.81400000  * -62.66100000  *
   477       H         69.02300000  *  155.05600000  * -61.52200000  *
   478       C         70.49800000  *  154.55900000  * -63.02400000  *
   479       H         71.33900000  *  154.89000000  * -62.40800000  *
   480       H         70.81900000  *  153.66100000  * -63.56600000  *
   481       N         70.11800000  *  155.62600000  * -63.99700000  *
   482       H         69.74700000  *  156.41600000  * -63.48300000  *
   483       H         70.92600000  *  155.93300000  * -64.52500000  *
   484       H         69.41500000  *  155.27800000  * -64.63600000  *
   485       C         70.36000000  *  152.21400000  * -58.25300000  *
   486       O         70.19400000  *  153.07400000  * -57.38700000  *
   487       N         71.53700000  *  151.64500000  * -58.50700000  *
   488       H         71.59600000  *  150.90400000  * -59.18600000  *
   489       C         72.75000000  *  152.07400000  * -57.83600000  *
   490       H         72.53800000  *  152.52600000  * -56.87100000  *
   491       C         73.72700000  *  150.91100000  * -57.67000000  *
   492       H         73.31500000  *  150.22100000  * -56.93700000  *
   493       H         73.77900000  *  150.36900000  * -58.62000000  *
   494       C         75.16700000  *  151.27300000  * -57.28800000  *
   495       H         75.65500000  *  151.80300000  * -58.10000000  *
   496       C         75.18300000  *  152.16500000  * -56.05900000  *
   497       H         74.60800000  *  151.72100000  * -55.25200000  *
   498       H         76.21000000  *  152.29600000  * -55.73500000  *
   499       H         74.78900000  *  153.14000000  * -56.31200000  *
   500       C         75.93300000  *  149.99400000  * -57.01300000  *
   501       H         75.98300000  *  149.42100000  * -57.93300000  *
   502       H         76.94600000  *  150.24200000  * -56.71200000  *
   503       H         75.43500000  *  149.41000000  * -56.23200000  *
   504       C         73.31900000  *  153.11300000  * -58.79500000  *
   505       O         73.76900000  *  152.77900000  * -59.89700000  *
   506       N         73.26700000  *  154.36900000  * -58.37800000  *
   507       H         72.92600000  *  154.57000000  * -57.44900000  *
   508       C         73.73400000  *  155.46600000  * -59.19700000  *
   509       H         73.47500000  *  155.26500000  * -60.23600000  *
   510       C         73.02500000  *  156.74200000  * -58.76000000  *
   511       H         73.45000000  *  157.06300000  * -57.80900000  *
   512       H         73.23600000  *  157.53300000  * -59.48700000  *
   513       C         71.51300000  *  156.60300000  * -58.58700000  *
   514       H         71.27400000  *  155.80900000  * -57.88500000  *
   515       C         70.97400000  *  157.88000000  * -58.01900000  *
   516       H         71.37000000  *  158.74600000  * -58.56000000  *
   517       H         69.88800000  *  157.89100000  * -58.09300000  *
   518       H         71.22100000  *  157.96000000  * -56.96600000  *
   519       C         70.85100000  *  156.29000000  * -59.92300000  *
   520       H         71.28300000  *  155.39700000  * -60.34200000  *
   521       H         69.78900000  *  156.14400000  * -59.75100000  *
   522       H         71.00300000  *  157.12700000  * -60.60700000  *
   523       C         75.24500000  *  155.67800000  * -59.15800000  *
   524       O         75.83900000  *  156.04700000  * -60.17600000  *
   525       N         75.86200000  *  155.44600000  * -57.99600000  *
   526       H         75.29500000  *  155.17900000  * -57.20400000  *
   527       C         77.30800000  *  155.64700000  * -57.82900000  *
   528       H         77.80800000  *  155.40400000  * -58.76600000  *
   529       C         77.60000000  *  157.11700000  * -57.51900000  *
   530       H         76.91700000  *  157.54400000  * -56.80300000  *
   531       H         78.58200000  *  157.17000000  * -57.04800000  *
   532       C         77.65600000  *  157.97500000  * -58.75600000  *
   533       O         78.67800000  *  157.91700000  * -59.48300000  *
   534       O         76.67400000  *  158.70400000  * -59.00000000  *
   535       C         77.97900000  *  154.81700000  * -56.73400000  *
   536       O         77.37100000  *  154.52100000  * -55.70400000  *
   537       N         79.24700000  *  154.47700000  * -56.96600000  *
   538       H         79.69800000  *  154.82400000  * -57.79800000  *
   539       C         80.06100000  *  153.73800000  * -56.00300000  *
   540       H         79.55400000  *  153.69900000  * -55.05200000  *
   541       C         80.36600000  *  152.29800000  * -56.50400000  *
   542       H         79.42700000  *  151.75200000  * -56.56200000  *
   543       C         80.98100000  *  152.34300000  * -57.88400000  *
   544       H         82.06600000  *  152.43300000  * -57.82100000  *
   545       H         80.74600000  *  151.41400000  * -58.37900000  *
   546       H         80.59600000  *  153.14500000  * -58.51000000  *
   547       C         81.29900000  *  151.58800000  * -55.53900000  *
   548       H         80.81100000  *  151.54900000  * -54.57200000  *
   549       H         81.47300000  *  150.57200000  * -55.87800000  *
   550       H         82.25900000  *  152.09200000  * -55.44900000  *
   551       C         81.36500000  *  154.53600000  * -55.81000000  *
   552       O         82.27000000  *  154.48900000  * -56.64700000  *
   553       N         81.45200000  *  155.28200000  * -54.71000000  *
   554       H         80.67600000  *  155.30400000  * -54.06400000  *
   555       C         82.62100000  *  156.11100000  * -54.44300000  *
   556       H         83.20500000  *  156.21800000  * -55.35800000  *
   557       H         82.32200000  *  157.12800000  * -54.14500000  *
   558       H         83.29700000  *  155.73900000  * -53.65600000  *
   559       H         84.58000000  *  155.17100000  * -47.07300000  *
   560       C         84.22500000  *  154.98400000  * -48.09100000  *
   561       O         84.63900000  *  155.65900000  * -49.04200000  *
   562       N         83.35800000  *  153.99100000  * -48.22200000  *
   563       H         83.13600000  *  153.42800000  * -47.41700000  *
   564       C         82.77600000  *  153.65100000  * -49.50600000  *
   565       H         83.37000000  *  154.04700000  * -50.31700000  *
   566       C         82.71900000  *  152.14000000  * -49.66000000  *
   567       H         83.74000000  *  151.87500000  * -49.95700000  *
   568       H         82.64400000  *  151.54600000  * -48.78400000  *
   569       C         81.82600000  *  151.61900000  * -50.77900000  *
   570       H         80.79100000  *  151.88400000  * -50.58700000  *
   571       C         82.25800000  *  152.23100000  * -52.09200000  *
   572       H         83.31100000  *  152.49100000  * -52.08900000  *
   573       H         82.09300000  *  151.51300000  * -52.88400000  *
   574       H         81.65400000  *  153.10900000  * -52.31200000  *
   575       C         81.89900000  *  150.09400000  * -50.82200000  *
   576       H         81.91300000  *  149.66400000  * -49.82700000  *
   577       H         81.05200000  *  149.70600000  * -51.39100000  *
   578       H         82.82500000  *  149.80300000  * -51.32100000  *
   579       C         81.36700000  *  154.23200000  * -49.54800000  *
   580       O         80.51800000  *  153.85700000  * -48.74500000  *
   581       N         81.13100000  *  155.16100000  * -50.46700000  *
   582       H         81.84500000  *  155.34800000  * -51.16200000  *
   583       C         79.82200000  *  155.78100000  * -50.60800000  *
   584       H         79.27400000  *  155.67000000  * -49.68700000  *
   585       C         79.96700000  *  157.27800000  * -50.86800000  *
   586       H         80.42300000  *  157.50400000  * -51.79700000  *
   587       H         78.95400000  *  157.66400000  * -50.98900000  *
   588       C         80.57600000  *  158.04300000  * -49.72300000  *
   589       C         79.79300000  *  158.48000000  * -48.65600000  *
   590       H         78.73500000  *  158.25400000  * -48.66900000  *
   591       C         80.35600000  *  159.18600000  * -47.59400000  *
   592       H         79.75300000  *  159.56200000  * -46.79700000  *
   593       C         81.71600000  *  159.45200000  * -47.58700000  *
   594       O         82.27600000  *  160.12500000  * -46.52100000  *
   595       H         83.20600000  *  160.30800000  * -46.74500000  *
   596       C         82.51400000  *  159.02600000  * -48.63700000  *
   597       H         83.58200000  *  159.23300000  * -48.65000000  *
   598       C         81.94100000  *  158.32800000  * -49.69800000  *
   599       H         82.57400000  *  157.98100000  * -50.50200000  *
   600       C         79.04800000  *  155.15800000  * -51.76500000  *
   601       O         79.54400000  *  155.08000000  * -52.88800000  *
   602       N         77.86300000  *  154.62200000  * -51.49600000  *
   603       H         77.53400000  *  154.64800000  * -50.53600000  *
   604       C         76.98300000  *  154.05400000  * -52.51500000  *
   605       H         77.50800000  *  154.00600000  * -53.46300000  *
   606       C         76.55100000  *  152.61900000  * -52.16500000  *
   607       H         75.85900000  *  152.65700000  * -51.33300000  *
   608       H         76.01000000  *  152.21700000  * -53.02200000  *
   609       C         77.68700000  *  151.65000000  * -51.79900000  *
   610       H         78.19800000  *  151.99900000  * -50.90100000  *
   611       C         77.11800000  *  150.26000000  * -51.52000000  *
   612       H         76.62000000  *  149.87100000  * -52.41000000  *
   613       H         77.92300000  *  149.58200000  * -51.23600000  *
   614       H         76.40300000  *  150.31300000  * -50.70000000  *
   615       C         78.69600000  *  151.52900000  * -52.93400000  *
   616       H         79.21400000  *  152.47600000  * -53.06500000  *
   617       H         79.43400000  *  150.76900000  * -52.68400000  *
   618       H         78.18700000  *  151.26100000  * -53.86000000  *
   619       C         75.78700000  *  154.98500000  * -52.67300000  *
   620       O         75.10500000  *  155.26400000  * -51.68400000  *
   621       N         75.54700000  *  155.50800000  * -53.87800000  *
   622       H         76.14500000  *  155.25500000  * -54.66000000  *
   623       C         74.40900000  *  156.37500000  * -54.09400000  *
   624       H         73.97600000  *  156.70200000  * -53.15000000  *
   625       C         74.83400000  *  157.63700000  * -54.81800000  *
   626       H         75.25500000  *  157.34500000  * -55.76600000  *
   627       C         73.61400000  *  158.52200000  * -55.10900000  *
   628       H         73.11700000  *  158.76900000  * -54.17500000  *
   629       H         73.94100000  *  159.43100000  * -55.61500000  *
   630       H         72.91600000  *  158.00900000  * -55.76200000  *
   631       C         75.84000000  *  158.38200000  * -53.94900000  *
   632       H         75.28100000  *  158.78400000  * -53.13000000  *
   633       H         76.65600000  *  157.75800000  * -53.60500000  *
   634       H         76.26100000  *  159.20400000  * -54.52500000  *
   635       C         73.31400000  *  155.64400000  * -54.85300000  *
   636       O         73.49500000  *  155.22100000  * -55.99400000  *
   637       N         72.21400000  *  155.37600000  * -54.15600000  *
   638       H         72.14600000  *  155.73100000  * -53.20700000  *
   639       C         71.03800000  *  154.69800000  * -54.69200000  *
   640       H         71.28600000  *  154.23500000  * -55.64300000  *
   641       C         70.58800000  *  153.60400000  * -53.71900000  *
   642       H         70.46200000  *  154.04200000  * -52.73000000  *
   643       H         69.60900000  *  153.24700000  * -54.03500000  *
   644       C         71.51800000  *  152.40900000  * -53.61200000  *
   645       C         71.37000000  *  151.32100000  * -54.49300000  *
   646       H         70.62600000  *  151.35000000  * -55.27500000  *
   647       C         72.18300000  *  150.18100000  * -54.35500000  *
   648       H         72.05800000  *  149.34200000  * -55.02700000  *
   649       C         73.15400000  *  150.13000000  * -53.34100000  *
   650       H         73.77900000  *  149.25300000  * -53.23400000  *
   651       C         73.30900000  *  151.21800000  * -52.46500000  *
   652       H         74.04800000  *  151.17100000  * -51.68000000  *
   653       C         72.49700000  *  152.35900000  * -52.60100000  *
   654       H         72.61600000  *  153.19100000  * -51.92000000  *
   655       C         69.90400000  *  155.69900000  * -54.92500000  *
   656       O         69.80100000  *  156.70600000  * -54.22300000  *
   657       N         69.02300000  *  155.42500000  * -55.89000000  *
   658       H         69.15700000  *  154.58500000  * -56.44300000  *
   659       C         67.73700000  *  156.13500000  * -55.96700000  *
   660       H         67.95300000  *  157.18300000  * -56.18100000  *
   661       C         66.87300000  *  155.60300000  * -57.12700000  *
   662       H         66.00100000  *  156.25100000  * -57.21500000  *
   663       H         67.44100000  *  155.66500000  * -58.05600000  *
   664       C         66.40400000  *  154.15700000  * -56.92200000  *
   665       H         67.28300000  *  153.51200000  * -56.89600000  *
   666       H         65.89900000  *  154.07900000  * -55.96300000  *
   667       C         65.42600000  *  153.65400000  * -57.99000000  *
   668       O         64.54400000  *  154.40800000  * -58.46200000  *
   669       O         65.49400000  *  152.45300000  * -58.32600000  *
   670       C         66.99200000  *  156.08000000  * -54.61400000  *
   671       O         67.02500000  *  155.06900000  * -53.90300000  *
   672       N         66.32400000  *  157.17100000  * -54.23500000  *
   673       H         66.30000000  *  157.97400000  * -54.84600000  *
   674       C         65.45600000  *  157.18200000  * -53.05700000  *
   675       H         65.89600000  *  156.54700000  * -52.28500000  *
   676       C         65.37400000  *  158.60100000  * -52.48800000  *
   677       H         66.37900000  *  158.93500000  * -52.23200000  *
   678       H         64.98700000  *  159.26800000  * -53.26000000  *
   679       C         64.50900000  *  158.71500000  * -51.24800000  *
   680       C         63.24700000  *  159.33600000  * -51.31300000  *
   681       H         62.88900000  *  159.74500000  * -52.24800000  *
   682       C         62.44200000  *  159.42000000  * -50.16300000  *
   683       H         61.47100000  *  159.89200000  * -50.21900000  *
   684       C         62.89500000  *  158.88400000  * -48.94600000  *
   685       H         62.27500000  *  158.94400000  * -48.06200000  *
   686       C         64.15500000  *  158.26400000  * -48.87800000  *
   687       H         64.50100000  *  157.84600000  * -47.94200000  *
   688       C         64.96000000  *  158.17900000  * -50.02700000  *
   689       H         65.92500000  *  157.69400000  * -49.97500000  *
   690       C         64.06500000  *  156.62600000  * -53.39300000  *
   691       O         63.46600000  *  156.99500000  * -54.40600000  *
   692       N         63.53600000  *  155.77700000  * -52.51100000  *
   693       H         64.09600000  *  155.52900000  * -51.70400000  *
   694       C         62.13400000  *  155.35100000  * -52.48400000  *
   695       H         61.56500000  *  155.88000000  * -53.25100000  *
   696       C         62.01600000  *  153.83900000  * -52.73200000  *
   697       H         62.68700000  *  153.31700000  * -52.05200000  *
   698       H         60.99600000  *  153.54500000  * -52.48000000  *
   699       C         62.30000000  *  153.42000000  * -54.18800000  *
   700       H         62.09000000  *  154.25200000  * -54.86000000  *
   701       C         63.75100000  *  152.97700000  * -54.36900000  *
   702       H         63.96700000  *  152.14100000  * -53.70700000  *
   703       H         63.92200000  *  152.68000000  * -55.40300000  *
   704       H         64.42400000  *  153.79800000  * -54.12700000  *
   705       C         61.41000000  *  152.24600000  * -54.59800000  *
   706       H         60.36100000  *  152.51500000  * -54.47400000  *
   707       H         61.57900000  *  152.00300000  * -55.64600000  *
   708       H         61.62800000  *  151.37300000  * -53.98600000  *
   709       C         61.53700000  *  155.72300000  * -51.12600000  *
   710       O         62.23600000  *  155.73500000  * -50.11700000  *
   711       N         60.25600000  *  156.07200000  * -51.08500000  *
   712       H         59.73400000  *  156.08600000  * -51.95200000  *
   713       C         59.67500000  *  156.77200000  * -49.93700000  *
   714       H         60.40500000  *  157.50100000  * -49.58300000  *
   715       C         58.45600000  *  157.56700000  * -50.41800000  *
   716       H         57.66800000  *  156.87000000  * -50.70200000  *
   717       H         58.10200000  *  158.17900000  * -49.59000000  *
   718       C         58.72800000  *  158.47900000  * -51.59300000  *
   719       N         58.85800000  *  158.07300000  * -52.92600000  *
   720       C         59.10900000  *  159.19100000  * -53.62900000  *
   721       H         59.26200000  *  159.23000000  * -54.70300000  *
   722       N         59.14300000  *  160.25900000  * -52.81300000  *
   723       H         59.31000000  *  161.21600000  * -53.11100000  *
   724       C         58.90500000  *  159.83100000  * -51.52600000  *
   725       H         58.86400000  *  160.44000000  * -50.63100000  *
   726       C         59.35000000  *  155.88500000  * -48.71700000  *
   727       O         59.10700000  *  156.42800000  * -47.63900000  *
   728       N         59.35900000  *  154.55100000  * -48.85100000  *
   729       H         59.56900000  *  154.16400000  * -49.76100000  *
   730       C         59.01700000  *  153.60100000  * -47.77800000  *
   731       H         59.45100000  *  153.96900000  * -46.84600000  *
   732       C         57.48000000  *  153.58100000  * -47.62200000  *
   733       H         57.14800000  *  154.58900000  * -47.36900000  *
   734       H         57.01800000  *  153.30600000  * -48.57200000  *
   735       C         56.97700000  *  152.62200000  * -46.53200000  *
   736       H         56.82100000  *  151.63800000  * -46.97100000  *
   737       H         57.72800000  *  152.54100000  * -45.74900000  *
   738       C         55.68700000  *  153.09900000  * -45.87500000  *
   739       O         55.69400000  *  153.75100000  * -44.84400000  *
   740       N         54.53300000  *  152.79500000  * -46.43000000  *
   741       H         53.70400000  *  153.13200000  * -45.96400000  *
   742       H         54.49800000  *  152.28800000  * -47.29600000  *
   743       C         59.59000000  *  152.18600000  * -48.02600000  *
   744       O         59.67500000  *  151.74200000  * -49.17200000  *
   745       N         59.95600000  *  151.46300000  * -46.95600000  *
   746       H         59.87200000  *  151.88000000  * -46.04300000  *
   747       C         60.28500000  *  150.02700000  * -47.01100000  *
   748       H         60.58300000  *  149.80400000  * -48.03200000  *
   749       C         61.51800000  *  149.69700000  * -46.14100000  *
   750       H         61.86600000  *  148.70700000  * -46.43900000  *
   751       H         62.31000000  *  150.40400000  * -46.39100000  *
   752       C         61.32500000  *  149.67900000  * -44.61500000  *
   753       O         60.22800000  *  149.32200000  * -44.13800000  *
   754       O         62.30000000  *  149.98400000  * -43.89100000  *
   755       C         59.07500000  *  149.11200000  * -46.71700000  *
   756       O         58.03700000  *  149.55000000  * -46.20200000  *
   757       N         59.19100000  *  147.81900000  * -47.04800000  *
   758       H         60.03800000  *  147.50900000  * -47.52500000  *
   759       C         58.10100000  *  146.88000000  * -46.84100000  *
   760       H         57.21800000  *  147.32500000  * -47.29300000  *
   761       C         58.41200000  *  145.57700000  * -47.59200000  *
   762       H         58.61300000  *  145.80400000  * -48.64400000  *
   763       H         59.28800000  *  145.12100000  * -47.15800000  *
   764       C         57.28700000  *  144.52700000  * -47.51900000  *
   765       H         57.05600000  *  144.28000000  * -46.48700000  *
   766       C         56.00700000  *  145.04400000  * -48.19600000  *
   767       H         56.23500000  *  145.37800000  * -49.20200000  *
   768       H         55.26800000  *  144.24500000  * -48.23100000  *
   769       H         55.59500000  *  145.87000000  * -47.62900000  *
   770       C         57.76800000  *  143.24900000  * -48.17500000  *
   771       H         58.61500000  *  142.85400000  * -47.62000000  *
   772       H         56.97300000  *  142.50400000  * -48.17100000  *
   773       H         58.06400000  *  143.44500000  * -49.20700000  *
   774       C         57.76400000  *  146.61300000  * -45.36900000  *
   775       O         56.60900000  *  146.37600000  * -45.03000000  *
   776       N         58.75700000  *  146.67700000  * -44.48800000  *
   777       H         59.64000000  *  147.08600000  * -44.79000000  *
   778       C         58.49100000  *  146.46700000  * -43.07300000  *
   779       H         57.97900000  *  145.55100000  * -42.87200000  *
   780       C         59.78200000  *  146.47800000  * -42.25400000  *
   781       H         60.44800000  *  145.70000000  * -42.62000000  *
   782       H         60.28600000  *  147.44000000  * -42.35600000  *
   783       C         59.49200000  *  146.22900000  * -40.76500000  *
   784       H         58.94200000  *  147.08300000  * -40.37400000  *
   785       H         58.87100000  *  145.33200000  * -40.67600000  *
   786       C         60.74500000  *  146.03800000  * -39.93500000  *
   787       H         61.36100000  *  145.25900000  * -40.37900000  *
   788       H         61.30800000  *  146.97100000  * -39.90700000  *
   789       C         60.37600000  *  145.60700000  * -38.51700000  *
   790       H         59.98500000  *  144.58900000  * -38.53700000  *
   791       H         61.27900000  *  145.61300000  * -37.90300000  *
   792       N         59.34600000  *  146.53100000  * -37.94700000  *
   793       H         58.44600000  *  146.48100000  * -38.44300000  *
   794       H         59.09000000  *  146.27800000  * -37.00400000  *
   795       H         59.61300000  *  147.50600000  * -37.97800000  *
   796       C         57.55800000  *  147.53800000  * -42.51200000  *
   797       O         56.61300000  *  147.23400000  * -41.78300000  *
   798       N         57.83200000  *  148.81200000  * -42.80400000  *
   799       H         58.65800000  *  149.00800000  * -43.37400000  *
   800       C         57.00900000  *  149.93100000  * -42.33100000  *
   801       H         56.89900000  *  149.84900000  * -41.24800000  *
   802       C         57.71800000  *  151.25900000  * -42.64200000  *
   803       H         58.73600000  *  151.21300000  * -42.25000000  *
   804       H         57.76900000  *  151.40100000  * -43.72100000  *
   805       C         56.99900000  *  152.45200000  * -41.99200000  *
   806       H         56.00500000  *  152.55600000  * -42.42600000  *
   807       H         56.89200000  *  152.26500000  * -40.92200000  *
   808       C         57.78100000  *  153.75900000  * -42.19000000  *
   809       H         58.74800000  *  153.67600000  * -41.69100000  *
   810       H         57.94200000  *  153.93100000  * -43.25600000  *
   811       C         56.98800000  *  154.92800000  * -41.59200000  *
   812       H         56.02700000  *  154.99900000  * -42.11100000  *
   813       H         56.78300000  *  154.70900000  * -40.54000000  *
   814       N         57.72300000  *  156.21300000  * -41.70500000  *
   815       H         57.90300000  *  156.45100000  * -42.66900000  *
   816       H         57.19100000  *  156.96900000  * -41.29900000  *
   817       H         58.60800000  *  156.17200000  * -41.22100000  *
   818       C         55.60500000  *  149.84200000  * -42.92500000  *
   819       O         54.62700000  *  150.08700000  * -42.22600000  *
   820       N         55.49500000  *  149.42600000  * -44.18900000  *
   821       H         56.35000000  *  149.26300000  * -44.71300000  *
   822       C         54.20500000  *  149.26000000  * -44.85200000  *
   823       H         53.62600000  *  150.17500000  * -44.72500000  *
   824       C         54.41000000  *  148.98800000  * -46.34000000  *
   825       H         54.98900000  *  149.80200000  * -46.77700000  *
   826       H         55.00200000  *  148.07700000  * -46.45200000  *
   827       C         53.12600000  *  148.85300000  * -47.10800000  *
   828       C         52.23100000  *  149.92200000  * -47.18600000  *
   829       H         52.46300000  *  150.85600000  * -46.69900000  *
   830       C         51.01500000  *  149.79500000  * -47.88400000  *
   831       H         50.32500000  *  150.62800000  * -47.91800000  *
   832       C         50.69700000  *  148.60300000  * -48.50200000  *
   833       H         49.75200000  *  148.50200000  * -49.02000000  *
   834       C         51.58700000  *  147.52100000  * -48.43200000  *
   835       H         51.33500000  *  146.58300000  * -48.91200000  *
   836       C         52.79500000  *  147.65400000  * -47.73300000  *
   837       H         53.46700000  *  146.81000000  * -47.67200000  *
   838       C         53.37400000  *  148.12200000  * -44.22700000  *
   839       O         52.16900000  *  148.28300000  * -44.00900000  *
   840       N         54.01600000  *  146.98100000  * -43.96600000  *
   841       H         55.00900000  *  146.90600000  * -44.17900000  *
   842       C         53.33800000  *  145.83600000  * -43.34100000  *
   843       H         52.47600000  *  145.52800000  * -43.93400000  *
   844       C         54.29200000  *  144.65000000  * -43.17000000  *
   845       H         55.15800000  *  145.02700000  * -42.63600000  *
   846       H         53.80700000  *  143.89200000  * -42.54700000  *
   847       C         54.73100000  *  144.00400000  * -44.46100000  *
   848       H         53.84700000  *  143.61400000  * -44.95900000  *
   849       H         55.19200000  *  144.69400000  * -45.15000000  *
   850       S         55.79700000  *  142.58100000  * -44.15400000  *
   851       C         57.05400000  *  143.29200000  * -43.18800000  *
   852       H         56.67800000  *  143.65800000  * -42.23500000  *
   853       H         57.80700000  *  142.53400000  * -42.98200000  *
   854       H         57.44300000  *  144.07900000  * -43.80900000  *
   855       C         52.84400000  *  146.26000000  * -41.95900000  *
   856       O         51.68200000  *  146.03200000  * -41.61400000  *
   857       N         53.72600000  *  146.88400000  * -41.17900000  *
   858       H         54.70100000  *  146.95700000  * -41.45300000  *
   859       C         53.34300000  *  147.35100000  * -39.84600000  *
   860       H         53.03400000  *  146.49700000  * -39.23800000  *
   861       C         54.50500000  *  148.07700000  * -39.15700000  *
   862       H         54.94100000  *  148.81500000  * -39.83000000  *
   863       H         54.12400000  *  148.60600000  * -38.28400000  *
   864       C         55.58400000  *  147.11500000  * -38.68500000  *
   865       O         55.26200000  *  145.90900000  * -38.57600000  *
   866       O         56.73300000  *  147.55200000  * -38.41700000  *
   867       C         52.15000000  *  148.27900000  * -39.96300000  *
   868       O         51.20300000  *  148.18000000  * -39.18700000  *
   869       N         52.18300000  *  149.16200000  * -40.95500000  *
   870       H         53.01600000  *  149.23700000  * -41.51800000  *
   871       C         51.08600000  *  150.10000000  * -41.17300000  *
   872       H         50.93100000  *  150.67400000  * -40.25800000  *
   873       C         51.42800000  *  151.06800000  * -42.31500000  *
   874       H         51.45500000  *  150.53900000  * -43.26600000  *
   875       H         50.66000000  *  151.83800000  * -42.36800000  *
   876       H         52.39300000  *  151.53600000  * -42.12800000  *
   877       C         49.78900000  *  149.37000000  * -41.49900000  *
   878       O         48.71100000  *  149.83600000  * -41.15600000  *
   879       N         49.90500000  *  148.22900000  * -42.16400000  *
   880       H         50.83800000  *  147.88500000  * -42.38200000  *
   881       C         48.74000000  *  147.45400000  * -42.57500000  *
   882       H         47.85700000  *  148.08600000  * -42.62800000  *
   883       H         48.90600000  *  147.02300000  * -43.58600000  *
   884       H         48.52600000  *  146.61900000  * -41.88800000  *
   885       H         72.54500000  *  137.05800000  * -55.15200000  *
   886       C         72.38600000  *  137.90500000  * -54.47400000  *
   887       O         73.28300000  *  138.71900000  * -54.28600000  *
   888       N         71.20100000  *  138.01500000  * -53.89800000  *
   889       H         70.47300000  *  137.31400000  * -54.05700000  *
   890       C         70.96800000  *  139.10000000  * -52.94900000  *
   891       H         71.50000000  *  140.00600000  * -53.22900000  *
   892       C         69.47700000  *  139.40500000  * -52.82500000  *
   893       H         69.09300000  *  139.71900000  * -53.79200000  *
   894       H         68.93000000  *  138.50600000  * -52.53300000  *
   895       C         69.17800000  *  140.45400000  * -51.81200000  *
   896       N         69.23000000  *  140.42300000  * -50.45900000  *
   897       C         68.94700000  *  141.69100000  * -50.01400000  *
   898       H         68.96900000  *  142.01200000  * -48.98400000  *
   899       N         68.72400000  *  142.47200000  * -51.05500000  *
   900       H         68.47200000  *  143.44500000  * -51.00700000  *
   901       C         68.85400000  *  141.75000000  * -52.15500000  *
   902       H         68.77100000  *  142.12600000  * -53.16500000  *
   903       C         71.52100000  *  138.65700000  * -51.58300000  *
   904       O         72.28000000  *  139.38000000  * -50.94700000  *
   905       N         71.11400000  *  137.47100000  * -51.14500000  *
   906       H         70.37100000  *  137.01600000  * -51.66500000  *
   907       C         71.55500000  *  136.88000000  * -49.87700000  *
   908       H         71.18200000  *  135.84900000  * -49.87900000  *
   909       C         73.07600000  *  136.85300000  * -49.83700000  *
   910       H         73.53100000  *  137.83300000  * -49.86900000  *
   911       H         73.36600000  *  136.47900000  * -48.85100000  *
   912       C         73.64700000  *  135.85900000  * -50.81700000  *
   913       H         73.29800000  *  134.87100000  * -50.67200000  *
   914       H         73.21600000  *  136.10500000  * -51.78700000  *
   915       C         75.11700000  *  136.08400000  * -50.99900000  *
   916       H         75.61200000  *  135.95400000  * -50.03300000  *
   917       H         75.49500000  *  135.33200000  * -51.69500000  *
   918       N         75.35800000  *  137.42700000  * -51.50600000  *
   919       H         74.62100000  *  138.12700000  * -51.38200000  *
   920       C         76.54800000  *  137.85900000  * -51.89000000  *
   921       N         77.59300000  *  137.04400000  * -51.81500000  *
   922       H         77.44700000  *  136.21200000  * -51.26800000  *
   923       H         78.49900000  *  137.44300000  * -51.92100000  *
   924       N         76.69000000  *  139.09300000  * -52.35600000  *
   925       H         75.86000000  *  139.69200000  * -52.33800000  *
   926       H         77.56200000  *  139.47800000  * -52.67100000  *
   927       C         71.03700000  *  137.42400000  * -48.54200000  *
   928       O         71.18700000  *  136.76800000  * -47.50900000  *
   929       N         70.43700000  *  138.60400000  * -48.51600000  *
   930       H         70.32800000  *  139.16900000  * -49.34700000  *
   931       C         69.93700000  *  139.07600000  * -47.23100000  *
   932       H         69.76500000  *  138.24900000  * -46.54100000  *
   933       C         70.93500000  *  140.04200000  * -46.56200000  *
   934       H         71.90900000  *  139.56600000  * -46.50900000  *
   935       H         71.04400000  *  140.94300000  * -47.17900000  *
   936       C         70.51300000  *  140.42800000  * -45.14700000  *
   937       O         70.17200000  *  139.51500000  * -44.35500000  *
   938       O         70.51000000  *  141.64400000  * -44.82500000  *
   939       C         68.58700000  *  139.73400000  * -47.37800000  *
   940       O         68.35000000  *  140.81000000  * -46.83500000  *
   941       N         67.68700000  *  139.08300000  * -48.11000000  *
   942       H         67.94300000  *  138.20800000  * -48.54500000  *
   943       C         66.35900000  *  139.64900000  * -48.29900000  *
   944       H         66.47700000  *  140.66700000  * -48.65900000  *
   945       C         65.54600000  *  138.81300000  * -49.28800000  *
   946       H         65.58300000  *  137.78400000  * -48.94500000  *
   947       H         64.50600000  *  139.14000000  * -49.25500000  *
   948       C         66.02700000  *  138.85500000  * -50.73600000  *
   949       H         67.06400000  *  138.52800000  * -50.78200000  *
   950       C         65.17300000  *  137.91700000  * -51.58300000  *
   951       H         64.15900000  *  138.30500000  * -51.68800000  *
   952       H         65.63400000  *  137.80700000  * -52.55000000  *
   953       H         65.13400000  *  136.93500000  * -51.11000000  *
   954       C         65.92100000  *  140.27700000  * -51.26400000  *
   955       H         66.42000000  *  140.99600000  * -50.63300000  *
   956       H         66.44200000  *  140.27500000  * -52.20900000  *
   957       H         64.88200000  *  140.56100000  * -51.39700000  *
   958       C         65.59400000  *  139.73400000  * -46.98200000  *
   959       O         65.58600000  *  138.79200000  * -46.16600000  *
   960       N         64.95900000  *  140.85700000  * -46.74200000  *
   961       H         64.96700000  *  141.58800000  * -47.44000000  *
   962       C         64.17200000  *  141.06600000  * -45.54100000  *
   963       H         63.56300000  *  140.17400000  * -45.39700000  *
   964       C         65.05300000  *  141.23700000  * -44.28400000  *
   965       H         64.41900000  *  141.29800000  * -43.39900000  *
   966       H         65.65600000  *  140.33600000  * -44.16700000  *
   967       C         65.98500000  *  142.45600000  * -44.29200000  *
   968       H         66.39000000  *  142.60100000  * -45.29000000  *
   969       H         65.42600000  *  143.34500000  * -43.99900000  *
   970       C         67.14700000  *  142.20900000  * -43.32100000  *
   971       H         66.75400000  *  141.94100000  * -42.33800000  *
   972       H         67.73000000  *  141.36800000  * -43.70500000  *
   973       C         68.04900000  *  143.43900000  * -43.18300000  *
   974       H         68.13900000  *  143.92700000  * -44.15800000  *
   975       H         67.57000000  *  144.15000000  * -42.49900000  *
   976       N         69.39400000  *  143.04800000  * -42.68300000  *
   977       H         69.87500000  *  142.45800000  * -43.37500000  *
   978       H         69.96400000  *  143.86200000  * -42.49000000  *
   979       H         69.31600000  *  142.52300000  * -41.82100000  *
   980       C         63.26700000  *  142.23000000  * -45.83500000  *
   981       O         63.62600000  *  143.07400000  * -46.65600000  *
   982       N         62.11200000  *  142.30300000  * -45.18600000  *
   983       C         61.62600000  *  141.34600000  * -44.17100000  *
   984       H         62.10000000  *  141.53200000  * -43.20900000  *
   985       H         61.74500000  *  140.31100000  * -44.47600000  *
   986       C         60.16400000  *  141.66900000  * -44.09500000  *
   987       H         59.73700000  *  141.34900000  * -43.14300000  *
   988       H         59.63700000  *  141.20600000  * -44.93200000  *
   989       C         60.16000000  *  143.18900000  * -44.24800000  *
   990       H         60.51600000  *  143.64900000  * -43.32100000  *
   991       H         59.20200000  *  143.56500000  * -44.57400000  *
   992       C         61.14500000  *  143.38000000  * -45.40300000  *
   993       H         60.63400000  *  143.20500000  * -46.34500000  *
   994       C         61.77100000  *  144.77100000  * -45.44800000  *
   995       O         61.39200000  *  145.58400000  * -46.27300000  *
   996       N         62.72600000  *  145.09100000  * -44.55700000  *
   997       H         62.97200000  *  144.40400000  * -43.86000000  *
   998       C         63.44200000  *  146.39000000  * -44.53900000  *
   999       H         62.70900000  *  147.19400000  * -44.45100000  *
  1000       C         64.39500000  *  146.46600000  * -43.33300000  *
  1001       H         65.08300000  *  145.62100000  * -43.36900000  *
  1002       H         64.98700000  *  147.37900000  * -43.42000000  *
  1003       C         63.69200000  *  146.50100000  * -41.97000000  *
  1004       H         62.99100000  *  147.33600000  * -41.95800000  *
  1005       H         63.13600000  *  145.57700000  * -41.82100000  *
  1006       C         64.68900000  *  146.65200000  * -40.81900000  *
  1007       O         65.71600000  *  145.99000000  * -40.76000000  *
  1008       N         64.43100000  *  147.51300000  * -39.85900000  *
  1009       H         65.09800000  *  147.60200000  * -39.10700000  *
  1010       H         63.61300000  *  148.10200000  * -39.89400000  *
  1011       C         64.27800000  *  146.67500000  * -45.80500000  *
  1012       O         64.48600000  *  147.82900000  * -46.17100000  *
  1013       N         64.75600000  *  145.62500000  * -46.47600000  *
  1014       H         64.46400000  *  144.70600000  * -46.17600000  *
  1015       C         65.53600000  *  145.68600000  * -47.71300000  *
  1016       H         66.10600000  *  146.61800000  * -47.74000000  *
  1017       C         66.54100000  *  144.50500000  * -47.74200000  *
  1018       H         66.02500000  *  143.57600000  * -47.51500000  *
  1019       H         66.94500000  *  144.40600000  * -48.74800000  *
  1020       C         67.74200000  *  144.65800000  * -46.81700000  *
  1021       O         68.00800000  *  145.70600000  * -46.25500000  *
  1022       N         68.52400000  *  143.62000000  * -46.62100000  *
  1023       H         69.37000000  *  143.74700000  * -46.09100000  *
  1024       H         68.28800000  *  142.68100000  * -46.92900000  *
  1025       C         64.63400000  *  145.70500000  * -48.96600000  *
  1026       O         65.15800000  *  145.61800000  * -50.07400000  *
  1027       N         63.30000000  *  145.80300000  * -48.83400000  *
  1028       H         62.89500000  *  145.87300000  * -47.90900000  *
  1029       C         62.40600000  *  145.84500000  * -49.97900000  *
  1030       H         62.94700000  *  145.74800000  * -50.91900000  *
  1031       C         61.36900000  *  144.72100000  * -49.88900000  *
  1032       H         60.76900000  *  144.86100000  * -48.99200000  *
  1033       H         60.74400000  *  144.79800000  * -50.77200000  *
  1034       C         62.03600000  *  143.32400000  * -49.85900000  *
  1035       H         62.67100000  *  143.24000000  * -48.98800000  *
  1036       C         61.00200000  *  142.26000000  * -49.77100000  *
  1037       H         60.24600000  *  142.42800000  * -50.53400000  *
  1038       H         61.44700000  *  141.27100000  * -49.89000000  *
  1039       H         60.52000000  *  142.31900000  * -48.79800000  *
  1040       C         62.89500000  *  143.12600000  * -51.08400000  *
  1041       H         63.82900000  *  143.66800000  * -50.95600000  *
  1042       H         63.12900000  *  142.06900000  * -51.20900000  *
  1043       H         62.39300000  *  143.49200000  * -51.96600000  *
  1044       C         61.76300000  *  147.21800000  * -49.95200000  *
  1045       O         61.15000000  *  147.60200000  * -48.96600000  *
  1046       N         61.87800000  *  147.97700000  * -51.03300000  *
  1047       H         62.36800000  *  147.60500000  * -51.84100000  *
  1048       C         61.44100000  *  149.37100000  * -51.06100000  *
  1049       H         61.05500000  *  149.67200000  * -50.08900000  *
  1050       C         62.62400000  *  150.27400000  * -51.38800000  *
  1051       H         62.95300000  *  150.06700000  * -52.40800000  *
  1052       H         62.27300000  *  151.30100000  * -51.33200000  *
  1053       C         63.81800000  *  150.10100000  * -50.44000000  *
  1054       H         64.21800000  *  149.09300000  * -50.52800000  *
  1055       C         64.87900000  *  151.09400000  * -50.86700000  *
  1056       H         64.51700000  *  152.09900000  * -50.67600000  *
  1057       H         65.79400000  *  150.90000000  * -50.31200000  *
  1058       H         65.08300000  *  151.01100000  * -51.92500000  *
  1059       C         63.48200000  *  150.36700000  * -48.97600000  *
  1060       H         62.81700000  *  149.59000000  * -48.61300000  *
  1061       H         64.39100000  *  150.33100000  * -48.37900000  *
  1062       H         63.00400000  *  151.34000000  * -48.86500000  *
  1063       C         60.32200000  *  149.56200000  * -52.06500000  *
  1064       O         60.41800000  *  149.10300000  * -53.19100000  *
  1065       N         59.26800000  *  150.25600000  * -51.67700000  *
  1066       H         59.36500000  *  150.76300000  * -50.80000000  *
  1067       C         58.08300000  *  150.44700000  * -52.50800000  *
  1068       H         58.17300000  *  149.92400000  * -53.45700000  *
  1069       C         56.81900000  *  149.90600000  * -51.78600000  *
  1070       H         55.94300000  *  150.08700000  * -52.41500000  *
  1071       C         56.95000000  *  148.40400000  * -51.54300000  *
  1072       H         57.75300000  *  148.18300000  * -50.83300000  *
  1073       H         56.01300000  *  148.00400000  * -51.15200000  *
  1074       H         57.15800000  *  147.91500000  * -52.48900000  *
  1075       C         56.64700000  *  150.60600000  * -50.43300000  *
  1076       H         57.48200000  *  150.38000000  * -49.77500000  *
  1077       H         56.60500000  *  151.68300000  * -50.57600000  *
  1078       C         55.37000000  *  150.22200000  * -49.68600000  *
  1079       H         55.48900000  *  149.24800000  * -49.22200000  *
  1080       H         55.17000000  *  150.96500000  * -48.91000000  *
  1081       H         54.52900000  *  150.16800000  * -50.38500000  *
  1082       C         57.87200000  *  151.93000000  * -52.81700000  *
  1083       O         58.38200000  *  152.79400000  * -52.10000000  *
  1084       N         57.14900000  *  152.22000000  * -53.89700000  *
  1085       H         56.70500000  *  151.48200000  * -54.43300000  *
  1086       C         56.84100000  *  153.60200000  * -54.22700000  *
  1087       H         57.16800000  *  154.27800000  * -53.43100000  *
  1088       C         57.50400000  *  154.05300000  * -55.54100000  *
  1089       H         57.21800000  *  155.07000000  * -55.80500000  *
  1090       H         58.58200000  *  154.04400000  * -55.38800000  *
  1091       C         57.19300000  *  153.14600000  * -56.70100000  *
  1092       O         56.13500000  *  152.53500000  * -56.76400000  *
  1093       N         58.11500000  *  153.07200000  * -57.64100000  *
  1094       H         57.83300000  *  152.61700000  * -58.48600000  *
  1095       H         58.88600000  *  153.71500000  * -57.62100000  *
  1096       C         55.33100000  *  153.75800000  * -54.32100000  *
  1097       O         54.57600000  *  152.79900000  * -54.11400000  *
  1098       N         54.88500000  *  154.97100000  * -54.62100000  *
  1099       H         55.52100000  *  155.73600000  * -54.79200000  *
  1100       C         53.46400000  *  155.24700000  * -54.72300000  *
  1101       H         52.92700000  *  154.82600000  * -53.87200000  *
  1102       C         53.20900000  *  156.78000000  * -54.75500000  *
  1103       H         52.16900000  *  156.98000000  * -55.02600000  *
  1104       C         53.47800000  *  157.39700000  * -53.41000000  *
  1105       H         54.52100000  *  157.25500000  * -53.13000000  *
[...]
 1005  H   0.83012
 1006  C   1.06490   0.79678   0.73517   0.79725
 1007  O   1.87724   1.40212   1.58599   1.82795
 1008  N   1.52691   1.34564   1.41445   1.31343
 1009  H   0.65598
 1010  H   0.66531
 1011  C   1.08338   0.75660   0.78102   0.81535
 1012  O   1.88469   1.66104   1.31319   1.72998
 1013  N   1.55124   1.50692   1.20221   1.30242
 1014  H   0.66584
 1015  C   1.07249   0.94611   1.09152   0.82184
 1016  H   0.80461
 1017  C   1.07052   1.05368   1.09282   1.15789
 1018  H   0.83015
 1019  H   0.79700
 1020  C   1.05856   0.80049   0.76442   0.76509
 1021  O   1.87521   1.77522   1.42446   1.59436
 1022  N   1.53146   1.31535   1.20477   1.57102
 1023  H   0.66729
 1024  H   0.65449
 1025  C   1.08815   0.78510   0.71942   0.85303
 1026  O   1.87836   1.76653   1.61052   1.38237
 1027  N   1.54129   1.12577   1.66494   1.18339
 1028  H   0.65339
 1029  C   1.06989   0.96911   0.97991   0.97477
 1030  H   0.81160
 1031  C   1.06731   1.06438   0.99760   1.17279
 1032  H   0.83707
 1033  H   0.84831
 1034  C   1.04101   1.01186   0.94620   1.06209
 1035  H   0.85550
 1036  C   1.04922   1.12589   1.11849   1.17079
 1037  H   0.84502
 1038  H   0.84896
 1039  H   0.86552
 1040  C   1.05157   1.14153   1.17180   1.09926
 1041  H   0.84478
 1042  H   0.85767
 1043  H   0.84992
 1044  C   1.07619   0.75012   0.84339   0.75536
 1045  O   1.87199   1.53673   1.79658   1.44719
 1046  N   1.54557   1.55916   1.17127   1.24428
 1047  H   0.64536
 1048  C   1.06484   0.99031   0.82622   1.10018
 1049  H   0.81393
 1050  C   1.06490   1.02108   1.10684   1.12715
 1051  H   0.84574
 1052  H   0.84126
 1053  C   1.04813   0.96480   1.07596   0.96795
 1054  H   0.86529
 1055  C   1.05351   1.12161   1.13435   1.16533
 1056  H   0.84683
 1057  H   0.84745
 1058  H   0.85978
 1059  C   1.05451   1.17731   1.17534   1.04703
 1060  H   0.84001
 1061  H   0.85124
 1062  H   0.84807
 1063  C   1.07537   0.79799   0.74396   0.81739
 1064  O   1.86905   1.83027   1.62555   1.34118
 1065  N   1.54158   1.19073   1.47009   1.29533
 1066  H   0.64435
 1067  C   1.07601   0.88938   1.00594   1.04179
 1068  H   0.80960
 1069  C   1.06435   1.01500   0.99306   1.02001
 1070  H   0.85029
 1071  C   1.05463   1.18122   1.03400   1.17652
 1072  H   0.84314
 1073  H   0.84520
 1074  H   0.85334
 1075  C   1.05402   1.07006   1.12008   1.03128
 1076  H   0.84508
 1077  H   0.86110
 1078  C   1.05251   1.08914   1.15773   1.13188
 1079  H   0.84822
 1080  H   0.87740
 1081  H   0.84728
 1082  C   1.08655   0.74195   0.88831   0.74188
 1083  O   1.88679   1.56894   1.57702   1.55671
 1084  N   1.54304   1.50754   1.14363   1.33805
 1085  H   0.64299
 1086  C   1.06230   0.97262   0.88493   1.03694
 1087  H   0.80611
 1088  C   1.07271   1.18114   1.12909   1.02437
 1089  H   0.80861
 1090  H   0.80389
 1091  C   1.06064   0.76211   0.77082   0.82341
 1092  O   1.88014   1.35555   1.56886   1.83561
 1093  N   1.53402   1.29734   1.49463   1.27183
 1094  H   0.67175
 1095  H   0.66478
 1096  C   1.08301   0.88496   0.75982   0.71397
 1097  O   1.88786   1.65354   1.46789   1.58744
 1098  N   1.54021   1.14549   1.19747   1.67252
 1099  H   0.66339
 1100  C   1.08561   0.83687   1.05850   1.08318
 1101  H   0.80361
 1102  C   1.08434   0.99201   0.86659   0.88976
 1103  H   0.84641
 1104  C   1.05379   1.18347   1.18049   1.05426
 1105  H   0.84150
 1106  H   0.82394
 1107  H   0.82950
 1108  O   1.84871   1.59265   1.82308   1.34568
 1109  H   0.64200
 1110  C   1.07320   0.78902   0.75549   0.82397
 1111  O   1.87787   1.27987   1.68889   1.84873
 1112  N   1.53326   1.19326   1.53450   1.21093
 1113  H   0.66725
 1114  C   1.05710   1.15385   1.13347   0.89297
 1115  H   0.83548
 1116  H   0.83758
 1117  H   0.83539
 1118  H   0.83963
 1119  C   1.10507   0.75482   0.73542   0.91352
 1120  O   1.88313   1.71059   1.59684   1.48266
 1121  N   1.54488   1.42795   1.34574   1.20813
 1122  H   0.65364
 1123  C   1.08073   0.93107   1.08435   0.93144
 1124  H   0.80938
 1125  C   1.07316   1.07916   0.95380   0.98254
 1126  H   0.84399
 1127  C   1.05811   1.18715   1.08414   1.12936
 1128  H   0.84354
 1129  H   0.84844
 1130  H   0.85207
 1131  C   1.05414   1.07577   1.13455   1.01857
 1132  H   0.85373
 1133  H   0.85458
 1134  C   1.04918   1.14386   1.15091   1.09052
 1135  H   0.85007
 1136  H   0.85961
 1137  H   0.84943
 1138  C   1.07225   0.84167   0.73663   0.77775
 1139  O   1.87775   1.89039   1.52088   1.39090
 1140  N   1.54472   1.10289   1.52637   1.33528
 1141  H   0.63263
 1142  C   1.06990   0.84590   1.05438   1.03752
 1143  H   0.81828
 1144  C   1.06006   1.09230   1.04549   1.09634
 1145  H   0.83573
 1146  H   0.84695
 1147  C   1.05103   1.08525   1.04429   1.07718
 1148  H   0.85082
 1149  H   0.84437
 1150  C   1.05929   1.08194   1.05395   1.09853
 1151  H   0.84157
 1152  H   0.83201
 1153  C   1.07855   1.02176   0.99773   1.07365
 1154  H   0.81273
 1155  H   0.83414
 1156  N   1.46138   1.23197   1.23319   1.26036
 1157  H   0.68667
 1158  H   0.70064
 1159  H   0.68758
 1160  C   1.07845   0.77974   0.75024   0.82544
 1161  O   1.88108   1.77265   1.69322   1.29094
 1162  N   1.54485   1.32878   1.42531   1.23097
 1163  H   0.64031
 1164  C   1.07016   0.91824   0.95737   1.02922
 1165  H   0.83178
 1166  C   1.06278   1.10020   1.01955   1.13286
 1167  H   0.83529
 1168  H   0.84503
 1169  C   1.05372   1.07052   0.96087   0.96345
 1170  H   0.85954
 1171  C   1.06224   1.16616   1.13947   1.09230
 1172  H   0.85197
 1173  H   0.84913
 1174  H   0.85270
 1175  C   1.05740   1.18276   1.13703   1.08874
 1176  H   0.85343
 1177  H   0.84812
 1178  H   0.85432
 1179  C   1.08496   0.79149   0.79892   0.75874
 1180  O   1.88069   1.63505   1.59978   1.53909
 1181  N   1.54356   1.36636   1.43826   1.16009
 1182  H   0.64488
 1183  C   1.06694   0.91135   0.92966   1.04848
 1184  H   0.83150
 1185  C   1.05965   1.16499   1.08787   1.15074
 1186  H   0.82061
 1187  H   0.83338
 1188  H   0.82581
 1189  C   1.08845   0.78574   0.78630   0.74715
 1190  O   1.87151   1.83809   1.36119   1.60166
 1191  N   1.54598   1.17688   1.32159   1.49025
 1192  H   0.67149
 1193  C   1.07528   0.88732   1.07623   0.92812
 1194  H   0.81969
 1195  C   1.07789   1.14742   1.17012   1.01793
 1196  H   0.80819
 1197  H   0.83451
 1198  C   1.07089   0.73174   0.73722   0.69501
 1199  O   1.88742   1.66777   1.47644   1.69106
 1200  O   1.87087   1.80288   1.44394   1.76286
 1201  C   1.08873   0.82082   0.79570   0.75213
 1202  O   1.88752   1.28449   1.79539   1.56969
 1203  N   1.56652   1.29204   1.17054   1.53916
 1204  H   0.68205
 1205  C   1.07981   1.02126   0.91670   0.95320
 1206  H   0.83943
 1207  C   1.05579   1.07773   1.20327   0.96297
 1208  H   0.81321
 1209  H   0.81931
 1210  C   1.07473   0.97372   0.97730   0.96982
 1211  C   1.09008   1.04130   1.04123   1.01403
 1212  H   0.83941
 1213  C   1.08871   0.98515   1.06188   1.01010
 1214  H   0.84200
 1215  C   1.08743   1.05979   0.99138   1.03204
 1216  H   0.84747
 1217  C   1.08931   1.03673   1.03641   0.98955
 1218  H   0.83208
 1219  C   1.08703   0.98688   1.06395   1.02434
 1220  H   0.83966
 1221  C   1.08903   0.80303   0.77374   0.76404
 1222  O   1.88523   1.44414   1.55945   1.71435
 1223  N   1.53937   1.41495   1.43699   1.13585
 1224  H   0.68382
 1225  C   1.06849   0.98834   1.06775   0.98167
 1226  H   0.81258
 1227  H   0.80692
 1228  C   1.07946   0.82854   0.77908   0.70644
 1229  O   1.87677   1.84116   1.32502   1.61308
 1230  N   1.55758   1.29768   1.23305   1.44619
 1231  H   0.67343
 1232  C   1.07742   0.89856   1.03246   0.96725
 1233  H   0.83427
 1234  C   1.06798   1.11262   0.95113   1.17583
 1235  H   0.83699
 1236  H   0.82964
 1237  C   1.05173   1.03254   0.96082   1.00977
 1238  H   0.86362
 1239  C   1.05602   1.16844   1.06723   1.16408
 1240  H   0.85782
 1241  H   0.84385
 1242  H   0.85581
 1243  C   1.05572   1.17144   1.18877   1.04722
 1244  H   0.84186
 1245  H   0.84108
 1246  H   0.85772
 1247  C   1.09507   0.85721   0.76499   0.72454
 1248  O   1.88112   1.32535   1.78554   1.59466
 1249  N   1.58226   1.28178   1.23386   1.52149
 1250  H   0.66062
 1251  C   1.06832   0.96396   0.99702   0.95491
 1252  H   0.83643
 1253  C   1.05864   1.14003   1.09754   1.17431
 1254  H   0.84403
 1255  H   0.81057
 1256  H   0.81014
 1257  C   1.07598   0.83424   0.75188   0.78130
 1258  O   1.88389   1.49982   1.59995   1.64956
 1259  N   1.54296   1.31122   1.51240   1.14421
 1260  H   0.67606
 1261  C   1.06248   0.92438   1.14575   1.10583
 1262  H   0.82646
 1263  H   0.82975
 1264  H   0.83905
 1265  H   0.84163
 1266  C   1.10462   0.72498   0.79421   0.87715
 1267  O   1.88383   1.53320   1.36198   1.88324
 1268  N   1.54275   1.48720   1.35115   1.14838
 1269  H   0.67722
 1270  C   1.07285   1.11764   0.96742   0.82226
 1271  H   0.80330
 1272  C   1.05781   1.09099   1.02714   1.14953
 1273  H   0.83574
 1274  H   0.82232
 1275  C   1.06417   0.97696   0.94922   0.96740
 1276  C   1.08262   1.01986   0.99363   1.05813
 1277  H   0.84033
 1278  C   1.08212   1.04738   1.02786   0.99875
 1279  H   0.84567
 1280  C   1.08107   1.00742   1.05584   1.02599
 1281  H   0.85033
 1282  C   1.08049   1.02484   1.00361   1.05517
 1283  H   0.85491
 1284  C   1.08311   1.05832   1.02569   0.99552
 1285  H   0.83999
 1286  C   1.08054   0.76599   0.78596   0.79870
 1287  O   1.88388   1.53913   1.68022   1.53362
 1288  N   1.53677   1.17672   1.34791   1.43201
 1289  H   0.67178
 1290  C   1.05819   1.14211   0.97729   0.99770
 1291  H   0.81372
 1292  H   0.78689
 1293  C   1.07323   0.78214   0.75101   0.80206
 1294  O   1.87181   1.55566   1.39925   1.84091
 1295  N   1.53474   1.40634   1.37156   1.17594
 1296  H   0.64827
 1297  C   1.07483   1.00351   1.20111   0.87815
 1298  H   0.80882
 1299  H   0.79331
 1300  C   1.08128   0.77440   0.74560   0.80729
 1301  O   1.88287   1.52186   1.53281   1.73154
 1302  N   1.56522   1.44466   1.16690   1.26722
 1303  C   1.07053   1.06972   0.86751   1.05585
 1304  H   0.83622
 1305  H   0.83910
 1306  C   1.05730   1.04601   1.13932   1.05919
 1307  H   0.84652
 1308  H   0.80429
 1309  C   1.06102   1.08253   0.98325   1.17211
 1310  H   0.83516
 1311  H   0.81971
 1312  C   1.07346   1.05229   1.00120   0.86782
 1313  H   0.81346
 1314  C   1.08825   0.76353   0.76814   0.82859
 1315  O   1.88393   1.42715   1.43538   1.88338
 1316  N   1.54313   1.40348   1.48390   1.11758
 1317  H   0.64362
 1318  C   1.08220   1.04967   1.11423   0.89123
 1319  H   0.80079
 1320  H   0.78748
 1321  C   1.08830   0.82546   0.73020   0.77831
 1322  O   1.88491   1.70329   1.72961   1.32957
 1323  N   1.55110   1.23221   1.41119   1.34487
 1324  H   0.68811
 1325  C   1.07569   0.86030   1.06409   0.97846
 1326  H   0.82195
 1327  C   1.05961   1.16890   1.07547   0.97642
 1328  H   0.83478
 1329  H   0.83900
 1330  C   1.05817   1.13857   1.07487   1.02383
 1331  H   0.82463
 1332  H   0.87157
 1333  C   1.06376   1.08739   1.09995   0.78142
 1334  H   0.85044
 1335  H   0.81931
 1336  N   1.53282   1.62702   1.28989   1.09340
 1337  H   0.64882
 1338  C   0.97600   0.83628   0.80288   0.79448
 1339  N   1.50146   1.56333   1.25848   1.24811
 1340  H   0.67463
 1341  H   0.62638
 1342  N   1.50408   1.55698   1.35354   1.14122
 1343  H   0.64457
 1344  H   0.63723
 1345  C   1.08274   0.75719   0.77358   0.84400
 1346  O   1.88770   1.48030   1.64667   1.56772
 1347  N   1.54267   1.54561   1.19734   1.23953
 1348  H   0.67300
 1349  C   1.08979   1.00055   1.01023   0.92076
 1350  H   0.80141
 1351  C   1.08610   0.93198   0.92677   0.87729
 1352  H   0.85158
 1353  C   1.05854   1.09727   1.12856   1.20569
 1354  H   0.82425
 1355  H   0.83334
 1356  H   0.83061
 1357  O   1.84299   1.58295   1.64071   1.56945
 1358  H   0.62624
 1359  C   1.07901   0.81303   0.79124   0.76260
 1360  O   1.88736   1.53732   1.79143   1.37007
 1361  N   1.55262   1.32715   1.29602   1.37691
 1362  H   0.65270
 1363  C   1.07402   0.98871   0.92723   0.99326
 1364  H   0.81744
 1365  C   1.05786   1.09544   1.06834   1.08726
 1366  H   0.84118
 1367  H   0.82631
 1368  C   1.06130   0.97225   0.97493   1.05865
 1369  C   1.08281   0.97242   1.07879   0.99012
 1370  H   0.84442
 1371  C   1.08089   1.07861   0.99503   1.02059
 1372  H   0.81235
 1373  C   1.06640   0.82674   0.89530   0.91077
 1374  O   1.84124   1.46898   1.54120   1.69632
 1375  H   0.63547
 1376  C   1.07377   0.99074   1.09253   1.07102
 1377  H   0.84755
 1378  C   1.08178   1.06397   0.99887   0.99446
 1379  H   0.85880
 1380  C   1.08210   0.77634   0.73405   0.82118
 1381  O   1.88476   1.39061   1.55606   1.82937
 1382  N   1.55035   1.20053   1.60175   1.14810
 1383  H   0.66103
 1384  C   1.08717   1.11709   1.03453   0.83755
 1385  H   0.82143
 1386  C   1.08251   0.83219   0.89082   1.00022
 1387  H   0.86862
 1388  C   1.05718   1.09876   1.14109   1.18958
 1389  H   0.83083
 1390  H   0.84596
 1391  H   0.84155
 1392  O   1.84703   1.32390   1.76633   1.66679
 1393  H   0.61642
 1394  C   1.08203   0.82825   0.76375   0.79216
 1395  O   1.88735   1.29171   1.70615   1.67726
 1396  N   1.54294   1.22803   1.27099   1.47584
 1397  H   0.64949
 1398  C   1.07064   0.98427   1.04045   1.07620
 1399  H   0.84408
 1400  H   0.80889
 1401  C   1.07025   0.85067   0.72025   0.75158
 1402  O   1.88499   1.70079   1.45748   1.55926
 1403  N   1.55352   1.14763   1.51370   1.33246
 1404  H   0.68024
 1405  C   1.07074   0.82913   0.98747   1.12941
 1406  H   0.81409
 1407  C   1.05318   1.16365   0.98892   1.05111
 1408  H   0.84018
 1409  H   0.83565
 1410  C   1.05983   1.20529   1.01191   1.13900
 1411  H   0.84377
 1412  H   0.82622
 1413  C   1.06646   0.72242   0.72000   0.72870
 1414  O   1.88757   1.46969   1.82228   1.63757
 1415  O   1.88484   1.52015   1.58617   1.81536
 1416  C   1.08689   0.77105   0.86274   0.75458
 1417  O   1.88730   1.64849   1.65317   1.40987
 1418  N   1.54581   1.31030   1.19182   1.47837
 1419  H   0.65304
 1420  C   1.07215   1.06277   0.88135   1.00771
 1421  H   0.84392
 1422  C   1.05448   1.01859   1.03213   0.97074
 1423  H   0.83592
 1424  C   1.05593   1.17746   1.04896   1.19330
 1425  H   0.84556
 1426  H   0.83587
 1427  H   0.83785
 1428  C   1.05458   1.18133   1.16769   1.06162
 1429  H   0.84054
 1430  H   0.83990
 1431  H   0.85217
 1432  C   1.07562   0.77098   0.73161   0.84200
 1433  O   1.88365   1.36350   1.63751   1.76949
 1434  N   1.53831   1.27323   1.47276   1.21115
 1435  H   0.66907
 1436  C   1.07704   1.00711   1.05465   0.86788
 1437  H   0.82263
 1438  C   1.06064   1.02672   1.01598   0.97681
 1439  H   0.84070
 1440  C   1.05420   1.18419   1.09834   1.12138
 1441  H   0.84085
 1442  H   0.84093
 1443  H   0.85078
 1444  C   1.05739   1.18958   1.16695   1.05253
 1445  H   0.84567
 1446  H   0.83583
 1447  H   0.83881
 1448  C   1.08147   0.80658   0.78641   0.75138
 1449  O   1.88317   1.81151   1.47331   1.46056
 1450  N   1.53602   1.23669   1.43122   1.31660
 1451  H   0.66413
 1452  C   1.07956   0.90453   0.96840   1.14820
 1453  H   0.80543
 1454  C   1.07973   0.93488   0.82438   0.98322
 1455  H   0.86608
 1456  C   1.05748   1.09529   1.13601   1.19616
 1457  H   0.82509
 1458  H   0.82203
 1459  H   0.84135
 1460  O   1.84756   1.47783   1.49388   1.78193
 1461  H   0.64864
 1462  C   1.07074   0.75399   0.82642   0.79818
 1463  O   1.88060   1.50663   1.88246   1.36381
 1464  N   1.53718   1.55066   1.12179   1.29444
 1465  H   0.65731
 1466  C   1.05405   1.16773   0.87321   1.13562
 1467  H   0.83025
 1468  H   0.83720
 1469  H   0.85138
 1470  H   0.82720
 1471  C   1.10850   0.72194   0.77564   0.90302
 1472  O   1.87917   1.50033   1.39727   1.89103
 1473  N   1.54806   1.50769   1.35868   1.13680
 1474  H   0.67051
 1475  C   1.07819   1.08309   1.04094   0.80206
 1476  H   0.80375
 1477  C   1.05901   1.13425   0.99950   1.10163
 1478  H   0.81851
 1479  H   0.82225
 1480  C   1.06594   0.97582   0.99307   1.00564
 1481  C   1.08235   0.99081   1.02462   1.00443
 1482  H   0.83778
 1483  C   1.07637   1.10512   1.04989   1.06629
 1484  H   0.82045
 1485  C   1.07257   0.88652   0.88190   0.87953
 1486  O   1.83868   1.35506   1.61296   1.73274
 1487  H   0.61909
 1488  C   1.07839   0.98840   1.10021   1.09718
 1489  H   0.82111
 1490  C   1.08814   1.07856   0.97869   0.96881
 1491  H   0.83501
 1492  C   1.08088   0.79997   0.76893   0.79199
 1493  O   1.88630   1.81383   1.69956   1.28042
 1494  N   1.53470   1.25581   1.50885   1.18463
 1495  H   0.67089
 1496  C   1.06142   0.92038   1.08960   1.16682
 1497  H   0.83437
 1498  H   0.82968
 1499  H   0.83854
 1500  H   0.82493
 1501  C   1.10803   0.78633   0.88374   0.71618
 1502  O   1.88011   1.43047   1.87064   1.50914
 1503  N   1.55068   1.37512   1.18538   1.44521
 1504  H   0.64441
 1505  C   1.07867   0.96564   0.86322   1.12906
 1506  H   0.81490
 1507  C   1.05976   0.97998   0.99669   1.07641
 1508  H   0.84646
 1509  C   1.05206   1.15821   1.06259   1.17610
 1510  H   0.84441
 1511  H   0.84454
 1512  H   0.84182
 1513  C   1.04783   0.99983   1.12974   1.08498
 1514  H   0.86666
 1515  H   0.85361
 1516  C   1.04903   1.11604   1.12956   1.14934
 1517  H   0.85857
 1518  H   0.85739
 1519  H   0.84129
 1520  C   1.07244   0.85966   0.73795   0.75021
 1521  O   1.87627   1.57603   1.55603   1.67377
 1522  N   1.54217   1.18493   1.41745   1.37468
 1523  H   0.66205
 1524  C   1.07134   0.87899   1.16328   1.10827
 1525  H   0.84314
 1526  H   0.83232
 1527  H   0.83420
 1528  H   0.82766
 1529  C   1.10758   0.84805   0.73313   0.82096
 1530  O   1.88534   1.81632   1.62623   1.36659
 1531  N   1.53783   1.25351   1.40312   1.30538
 1532  H   0.64784
 1533  C   1.05912   0.89164   1.04068   1.02426
 1534  H   0.81940
 1535  C   1.06068   1.03219   1.11479   1.11468
 1536  H   0.82480
 1537  H   0.84733
 1538  C   1.04445   0.99009   0.96319   1.05962
 1539  H   0.88048
 1540  C   1.05455   1.16290   1.06810   1.18077
 1541  H   0.83841
 1542  H   0.84761
 1543  H   0.85378
 1544  C   1.05258   1.12366   1.17252   1.10846
 1545  H   0.85758
 1546  H   0.84693
 1547  H   0.84129
 1548  C   1.07863   0.72944   0.86469   0.77477
 1549  O   1.88184   1.57585   1.45138   1.73539
 1550  N   1.54006   1.57267   1.21259   1.19381
 1551  H   0.66107
 1552  C   1.07180   1.01977   0.93493   0.96143
 1553  H   0.81160
 1554  C   1.05664   1.17064   1.07921   0.99194
 1555  H   0.82412
 1556  H   0.82666
 1557  C   1.05682   1.13005   1.08812   1.03640
 1558  H   0.85337
 1559  H   0.82391
 1560  C   1.06364   1.15815   0.94492   0.90200
 1561  H   0.81608
 1562  H   0.83569
 1563  N   1.52414   1.16136   1.42473   1.39821
 1564  H   0.63966
 1565  C   0.99146   0.79130   0.81241   0.81845
 1566  N   1.51722   1.11653   1.46801   1.48663
 1567  H   0.65570
 1568  H   0.63932
 1569  N   1.50866   1.25119   1.39993   1.41136
 1570  H   0.64191
 1571  H   0.64054
 1572  C   1.08185   0.87206   0.77158   0.74447
 1573  O   1.88741   1.60871   1.60002   1.52824
 1574  N   1.53976   1.17469   1.27134   1.51535
 1575  H   0.65703
 1576  C   1.07436   0.85665   1.08604   1.03922
 1577  H   0.82204
 1578  C   1.06139   1.16456   1.09816   0.98332
 1579  H   0.84191
 1580  H   0.83804
 1581  C   1.04767   1.08163   0.96039   0.94848
 1582  H   0.86918
 1583  C   1.05592   1.17126   1.16296   1.07740
 1584  H   0.85488
 1585  H   0.86110
 1586  H   0.84662
 1587  C   1.05684   1.15796   1.09207   1.15811
 1588  H   0.85101
 1589  H   0.86074
 1590  H   0.84548
 1591  C   1.08300   0.71483   0.76194   0.70285
 1592  O   1.88398   1.46791   1.86984   1.62370
 1593  O   1.88769   1.54672   1.59351   1.80260

 **********************
 *                    *
 * JOB ENDED NORMALLY *
 *                    *
 **********************



 TOTAL JOB TIME:          2976.04 SECONDS

 == MOPAC DONE ==
