 *******************************************************************************
 **                                                                           **
 **                              MOPAC v23.2.2                                **
 **                                                                           **
 *******************************************************************************
 **          Digital Object Identifier (DOI): 10.5281/zenodo.6511958          **
 **    Visit the DOI location for information on how to cite this program.    **
 *******************************************************************************

                              PM7 CALCULATION RESULTS

 *******************************************************************************
 *  CALCULATION DONE: (MAX THREADS = 24)             Thu Jan 22 16:42:14 2026  *
 *  PM7        - The PM7 Hamiltonian to be used
 *
 *
 *
 *                 CHARGE ON SYSTEM = +2
 *
 *
 *
 *  EPS=1      - USE ANDREAS KLAMT'S COSMO IMPLICIT SOLVATION MODEL
 *  XYZ        - CARTESIAN COORDINATE SYSTEM TO BE USED
 *  1SCF       - DO 1 SCF AND THEN STOP 
 *  T=         - A TIME OF 172800.0 SECONDS REQUESTED
 *  DUMP=N     - RESTART FILE WRITTEN EVERY 7200.0 SECONDS REQUESTED
 *******************************************************************************
PM7 1SCF XYZ CHARGE=2 EPS=1


   ATOM   CHEMICAL          X               Y               Z
  NUMBER   SYMBOL      (ANGSTROMS)     (ANGSTROMS)     (ANGSTROMS)

     1       H         71.69100000  *  165.23700000  * -45.36000000  *
     2       C         70.72700000  *  165.64400000  * -45.02500000  *
     3       O         70.67100000  *  166.69300000  * -44.40000000  *
     4       N         69.64800000  *  164.94600000  * -45.35400000  *
     5       H         69.74300000  *  164.08600000  * -45.86500000  *
     6       C         68.31800000  *  165.37700000  * -44.95100000  *
     7       H         68.30400000  *  166.44500000  * -44.75000000  *
     8       C         67.27900000  *  165.08100000  * -46.05800000  *
     9       H         67.27200000  *  164.02200000  * -46.29800000  *
    10       C         65.89200000  *  165.46600000  * -45.59200000  *
    11       H         65.46400000  *  166.22900000  * -46.24500000  *
    12       H         65.23700000  *  164.60600000  * -45.62700000  *
    13       H         65.87600000  *  165.89500000  * -44.58400000  *
    14       C         67.63700000  *  165.85600000  * -47.31700000  *
    15       H         68.59400000  *  165.52900000  * -47.70800000  *
    16       H         66.87900000  *  165.66900000  * -48.07700000  *
    17       H         67.68800000  *  166.92100000  * -47.10100000  *
    18       C         67.91500000  *  164.66400000  * -43.65700000  *
    19       O         67.55300000  *  165.30600000  * -42.67600000  *
    20       N         67.98400000  *  163.33800000  * -43.65800000  *
    21       H         68.28400000  *  162.85200000  * -44.48600000  *
    22       C         67.62300000  *  162.54400000  * -42.48700000  *
    23       H         67.90600000  *  163.07600000  * -41.58100000  *
    24       C         66.12800000  *  162.23500000  * -42.45900000  *
    25       H         65.92600000  *  161.47400000  * -43.20900000  *
    26       H         65.88500000  *  161.80700000  * -41.48800000  *
    27       C         65.21300000  *  163.39800000  * -42.74000000  *
    28       H         65.33100000  *  164.15700000  * -41.96400000  *
    29       H         65.45900000  *  163.81400000  * -43.69700000  *
    30       C         63.76600000  *  162.97200000  * -42.82400000  *
    31       O         63.44700000  *  162.11400000  * -43.67900000  *
    32       O         62.94800000  *  163.49400000  * -42.03400000  *
    33       C         68.34700000  *  161.22200000  * -42.57700000  *
    34       O         68.73000000  *  160.78800000  * -43.66100000  *
    35       N         68.52400000  *  160.57500000  * -41.43500000  *
    36       H         68.03000000  *  160.89100000  * -40.60600000  *
    37       C         69.17300000  *  159.28200000  * -41.42100000  *
    38       H         69.95100000  *  159.22100000  * -42.17800000  *
    39       C         69.75600000  *  159.01000000  * -40.03200000  *
    40       H         70.21900000  *  159.94300000  * -39.71800000  *
    41       H         68.96300000  *  158.79100000  * -39.31600000  *
    42       C         70.79800000  *  157.89600000  * -39.98300000  *
    43       H         70.31100000  *  156.94100000  * -40.17400000  *
    44       H         71.53800000  *  158.07300000  * -40.76900000  *
    45       C         71.50100000  *  157.83200000  * -38.61800000  *
    46       H         70.74900000  *  157.59000000  * -37.86000000  *
    47       H         72.23100000  *  157.01800000  * -38.63800000  *
    48       C         72.18600000  *  159.16200000  * -38.26900000  *
    49       H         72.83200000  *  159.42500000  * -39.10900000  *
    50       H         71.41200000  *  159.93100000  * -38.15600000  *
    51       N         73.00000000  *  159.10500000  * -37.02500000  *
    52       H         73.70000000  *  158.37000000  * -37.07400000  *
    53       H         73.43800000  *  159.98800000  * -36.79300000  *
    54       H         72.39100000  *  158.85400000  * -36.25100000  *
    55       C         68.06200000  *  158.28700000  * -41.74800000  *
    56       O         67.16300000  *  158.08100000  * -40.94600000  *
    57       N         68.04700000  *  157.72300000  * -42.96000000  *
    58       H         68.84900000  *  157.87100000  * -43.55200000  *
    59       C         67.03600000  *  156.73100000  * -43.38200000  *
    60       H         66.05200000  *  157.20400000  * -43.35900000  *
    61       C         67.29100000  *  156.23000000  * -44.82400000  *
    62       H         68.36300000  *  156.08800000  * -44.95900000  *
    63       C         66.59100000  *  154.89300000  * -45.11600000  *
    64       H         65.52700000  *  154.97300000  * -44.89200000  *
    65       H         66.71100000  *  154.63800000  * -46.16000000  *
    66       H         67.03000000  *  154.08100000  * -44.53700000  *
    67       C         66.79800000  *  157.28600000  * -45.82500000  *
    68       H         65.70700000  *  157.30300000  * -45.83400000  *
    69       H         67.13900000  *  158.25200000  * -45.47000000  *
    70       C         67.31100000  *  157.08600000  * -47.25900000  *
    71       H         66.88100000  *  156.19300000  * -47.70500000  *
    72       H         67.02600000  *  157.93900000  * -47.87100000  *
    73       H         68.39500000  *  157.00300000  * -47.26300000  *
    74       C         66.97600000  *  155.56200000  * -42.40000000  *
    75       O         65.89800000  *  155.18700000  * -41.93600000  *
    76       N         68.13500000  *  154.97000000  * -42.11300000  *
    77       H         68.99700000  *  155.34200000  * -42.49800000  *
    78       C         68.20000000  *  153.74500000  * -41.33700000  *
    79       H         67.75900000  *  153.92300000  * -40.35600000  *
    80       H         67.61700000  *  152.97300000  * -41.84200000  *
    81       C         69.60900000  *  153.21400000  * -41.13200000  *
    82       O         70.60900000  *  153.74800000  * -41.61900000  *
    83       N         69.65000000  *  152.13300000  * -40.37000000  *
    84       H         68.76800000  *  151.74700000  * -40.06300000  *
    85       C         70.85200000  *  151.54700000  * -39.79800000  *
    86       H         71.70400000  *  152.21000000  * -39.95700000  *
    87       C         70.62600000  *  151.41500000  * -38.28200000  *
    88       H         69.79700000  *  150.73300000  * -38.09100000  *
    89       H         71.53200000  *  151.01100000  * -37.85200000  *
    90       C         70.33800000  *  152.77000000  * -37.60600000  *
    91       H         71.14300000  *  153.46600000  * -37.85600000  *
    92       H         69.40900000  *  153.18900000  * -38.00000000  *
    93       C         70.20600000  *  152.64900000  * -36.08000000  *
    94       O         69.29300000  *  151.94100000  * -35.59800000  *
    95       O         70.97700000  *  153.31500000  * -35.35100000  *
    96       C         71.13400000  *  150.21800000  * -40.51600000  *
    97       O         70.50800000  *  149.19300000  * -40.23200000  *
    98       N         71.97200000  *  150.27300000  * -41.55600000  *
    99       H         72.52900000  *  151.10800000  * -41.69000000  *
   100       C         72.06000000  *  149.23600000  * -42.59000000  *
   101       H         71.05700000  *  148.86500000  * -42.80800000  *
   102       H         72.44400000  *  149.69600000  * -43.50000000  *
   103       C         72.94700000  *  148.03400000  * -42.25200000  *
   104       O         73.48800000  *  147.90200000  * -41.15600000  *
   105       N         73.13700000  *  147.16300000  * -43.24600000  *
   106       H         72.64800000  *  147.32100000  * -44.11700000  *
   107       C         73.97700000  *  145.94500000  * -43.18500000  *
   108       H         73.70000000  *  145.36600000  * -42.30400000  *
   109       C         73.73200000  *  145.07200000  * -44.42800000  *
   110       H         74.48100000  *  144.28000000  * -44.48100000  *
   111       C         72.35100000  *  144.42800000  * -44.39900000  *
   112       H         71.57200000  *  145.18900000  * -44.43200000  *
   113       H         72.24800000  *  143.76300000  * -45.25700000  *
   114       H         72.25600000  *  143.83200000  * -43.49200000  *
   115       O         73.81900000  *  145.87900000  * -45.57700000  *
   116       H         73.30200000  *  145.45400000  * -46.29900000  *
   117       C         75.48300000  *  146.21200000  * -43.08700000  *
   118       O         76.19500000  *  145.37500000  * -42.53600000  *
   119       N         75.95700000  *  147.36400000  * -43.58200000  *
   120       H         75.29300000  *  147.94100000  * -44.07100000  *
   121       C         77.38500000  *  147.72100000  * -43.69200000  *
   122       H         77.97800000  *  147.06000000  * -43.05700000  *
   123       C         77.84500000  *  147.52600000  * -45.14800000  *
   124       H         77.25600000  *  148.17800000  * -45.79200000  *
   125       H         78.88800000  *  147.83100000  * -45.23900000  *
   126       C         77.76500000  *  146.11000000  * -45.66100000  *
   127       C         78.68300000  *  145.15600000  * -45.19000000  *
   128       H         79.44400000  *  145.44000000  * -44.47400000  *
   129       C         78.60300000  *  143.83000000  * -45.64000000  *
   130       H         79.30500000  *  143.10200000  * -45.26600000  *
   131       C         77.60100000  *  143.45900000  * -46.56400000  *
   132       O         77.49000000  *  142.16900000  * -46.95800000  *
   133       H         77.90500000  *  141.59200000  * -46.28900000  *
   134       C         76.69600000  *  144.42100000  * -47.05100000  *
   135       H         75.92000000  *  144.13400000  * -47.74200000  *
   136       C         76.78500000  *  145.74900000  * -46.60500000  *
   137       H         76.08200000  *  146.48500000  * -46.96700000  *
   138       C         77.72800000  *  149.16000000  * -43.26900000  *
   139       O         78.87800000  *  149.56800000  * -43.41200000  *
   140       N         76.77100000  *  149.95300000  * -42.77900000  *
   141       H         75.85100000  *  149.57700000  * -42.60000000  *
   142       C         76.98500000  *  151.37100000  * -42.47100000  *
   143       H         77.53300000  *  151.46200000  * -41.53600000  *
   144       H         77.59500000  *  151.81200000  * -43.25000000  *
   145       C         75.68300000  *  152.16200000  * -42.35000000  *
   146       O         74.61500000  *  151.56900000  * -42.16800000  *
   147       N         75.75500000  *  153.49500000  * -42.44900000  *
   148       H         76.58800000  *  153.89400000  * -42.85900000  *
   149       C         74.59200000  *  154.32600000  * -42.21200000  *
   150       H         73.82600000  *  153.78000000  * -41.65800000  *
   151       C         74.95900000  *  155.54800000  * -41.37000000  *
   152       H         75.70700000  *  156.13900000  * -41.89300000  *
   153       C         73.73100000  *  156.40900000  * -41.13300000  *
   154       H         72.94300000  *  155.80300000  * -40.68200000  *
   155       H         73.98600000  *  157.21200000  * -40.45000000  *
   156       H         73.36800000  *  156.84900000  * -42.06500000  *
   157       C         75.54500000  *  155.09600000  * -40.05300000  *
   158       H         76.46000000  *  154.52800000  * -40.19800000  *
   159       H         75.77700000  *  155.95300000  * -39.42300000  *
   160       H         74.80500000  *  154.48400000  * -39.53200000  *
   161       C         74.01900000  *  154.79200000  * -43.53700000  *
   162       O         74.76100000  *  155.18400000  * -44.43700000  *
   163       N         72.69700000  *  154.65100000  * -43.67700000  *
   164       H         72.16600000  *  154.31700000  * -42.87800000  *
   165       C         71.91700000  *  155.10100000  * -44.83600000  *
   166       H         72.57700000  *  155.16300000  * -45.69900000  *
   167       C         70.77000000  *  154.12600000  * -45.18200000  *
   168       H         69.94600000  *  154.26900000  * -44.48300000  *
   169       C         70.25900000  *  154.40900000  * -46.60000000  *
   170       H         71.04200000  *  154.21000000  * -47.33200000  *
   171       H         69.40100000  *  153.77200000  * -46.81700000  *
   172       H         69.95200000  *  155.44800000  * -46.69300000  *
   173       C         71.18400000  *  152.65300000  * -45.10300000  *
   174       H         72.08400000  *  152.49800000  * -45.69000000  *
   175       H         71.37300000  *  152.37400000  * -44.06500000  *
   176       H         70.38100000  *  152.01900000  * -45.48400000  *
   177       C         71.34500000  *  156.48500000  * -44.54400000  *
   178       O         70.60300000  *  156.63200000  * -43.57000000  *
   179       N         71.62500000  *  157.49000000  * -45.37400000  *
   180       H         72.23900000  *  157.32200000  * -46.16900000  *
   181       C         71.01800000  *  158.79600000  * -45.21900000  *
   182       H         70.37900000  *  158.84300000  * -44.33800000  *
   183       C         72.10000000  *  159.86100000  * -45.06900000  *
   184       H         72.79900000  *  159.78100000  * -45.90500000  *
   185       H         71.63400000  *  160.84400000  * -45.14300000  *
   186       C         72.87100000  *  159.84300000  * -43.76800000  *
   187       C         72.34700000  *  160.43100000  * -42.61900000  *
   188       H         71.37700000  *  160.90600000  * -42.66800000  *
   189       C         73.06400000  *  160.45200000  * -41.42500000  *
   190       H         72.63300000  *  160.94600000  * -40.56800000  *
   191       C         74.33000000  *  159.87400000  * -41.37100000  *
   192       O         75.04700000  *  159.90100000  * -40.18700000  *
   193       H         74.69700000  *  160.54100000  * -39.56800000  *
   194       C         74.87500000  *  159.27800000  * -42.50300000  *
   195       H         75.78500000  *  158.71900000  * -42.41900000  *
   196       C         74.14000000  *  159.26700000  * -43.69600000  *
   197       H         74.51800000  *  158.73300000  * -44.56500000  *
   198       C         70.16700000  *  159.17400000  * -46.42900000  *
   199       O         70.41800000  *  158.72400000  * -47.55600000  *
   200       N         69.03100000  *  159.83600000  * -46.21200000  *
   201       H         68.84400000  *  160.14300000  * -45.26400000  *
   202       C         68.29500000  *  160.51300000  * -47.28100000  *
   203       H         68.28500000  *  159.91100000  * -48.19100000  *
   204       C         66.85100000  *  160.84200000  * -46.84700000  *
   205       H         66.33300000  *  159.92400000  * -46.58200000  *
   206       H         66.87000000  *  161.48500000  * -45.96600000  *
   207       C         66.04100000  *  161.52200000  * -47.96200000  *
   208       H         66.51400000  *  162.46500000  * -48.24100000  *
   209       H         66.01600000  *  160.86800000  * -48.83500000  *
   210       C         64.60600000  *  161.80000000  * -47.48800000  *
   211       H         64.14800000  *  160.86700000  * -47.15400000  *
   212       H         64.63700000  *  162.49400000  * -46.64700000  *
   213       C         63.76400000  *  162.39900000  * -48.62300000  *
   214       H         64.28500000  *  163.27600000  * -49.02100000  *
   215       H         63.69000000  *  161.65600000  * -49.42600000  *
   216       N         62.40600000  *  162.78800000  * -48.15900000  *
   217       H         62.45100000  *  163.49500000  * -47.43900000  *
   218       H         61.85500000  *  163.17100000  * -48.91600000  *
   219       H         61.90000000  *  161.99900000  * -47.78100000  *
   220       C         69.10300000  *  161.76700000  * -47.50900000  *
   221       O         69.33500000  *  162.50000000  * -46.55200000  *
   222       N         69.55500000  *  162.00600000  * -48.72500000  *
   223       H         69.34400000  *  161.34200000  * -49.46700000  *
   224       C         70.34900000  *  163.18200000  * -49.01700000  *
   225       H         70.22500000  *  163.93500000  * -48.24000000  *
   226       C         71.81400000  *  162.79200000  * -49.07000000  *
   227       H         71.97800000  *  162.06700000  * -49.86400000  *
   228       H         72.42900000  *  163.67700000  * -49.23900000  *
   229       H         72.10500000  *  162.33200000  * -48.12600000  *
   230       C         69.94400000  *  163.83800000  * -50.32200000  *
   231       O         69.22100000  *  163.25100000  * -51.12800000  *
   232       N         70.40700000  *  165.06400000  * -50.52400000  *
   233       H         70.93200000  *  165.53000000  * -49.79600000  *
   234       C         70.10800000  *  165.77900000  * -51.74600000  *
   235       H         69.54100000  *  165.15900000  * -52.44400000  *
   236       H         69.52200000  *  166.69100000  * -51.53000000  *
   237       H         71.05900000  *  166.04700000  * -52.23900000  *
   238       H         68.08600000  *  164.80700000  * -56.55000000  *
   239       C         68.21200000  *  164.39600000  * -55.53600000  *
   240       O         69.28600000  *  164.50800000  * -54.94200000  *
   241       N         67.13500000  *  163.82300000  * -55.01100000  *
   242       H         66.34000000  *  163.66800000  * -55.61500000  *
   243       C         67.13600000  *  163.21200000  * -53.68800000  *
   244       H         67.86300000  *  163.70700000  * -53.05000000  *
   245       C         65.75500000  *  163.32300000  * -53.02900000  *
   246       H         64.97700000  *  163.06900000  * -53.75000000  *
   247       C         65.64800000  *  162.36600000  * -51.85200000  *
   248       H         66.47200000  *  162.51800000  * -51.15200000  *
   249       H         64.69700000  *  162.53800000  * -51.34700000  *
   250       H         65.65200000  *  161.33900000  * -52.20000000  *
   251       C         65.54000000  *  164.75000000  * -52.56600000  *
   252       H         65.62600000  *  165.42400000  * -53.41600000  *
   253       H         64.53500000  *  164.85100000  * -52.15900000  *
   254       H         66.28400000  *  165.00300000  * -51.81000000  *
   255       C         67.52600000  *  161.76000000  * -53.84700000  *
   256       O         66.97900000  *  161.02800000  * -54.68200000  *
   257       N         68.49600000  *  161.34900000  * -53.04800000  *
   258       H         68.91100000  *  161.99700000  * -52.39100000  *
   259       C         69.01100000  *  159.99200000  * -53.10200000  *
   260       H         68.34600000  *  159.34100000  * -53.67900000  *
   261       C         70.37400000  *  159.97400000  * -53.81600000  *
   262       H         70.77500000  *  158.96500000  * -53.87500000  *
   263       C         70.21400000  *  160.50700000  * -55.21300000  *
   264       H         69.95700000  *  161.56600000  * -55.19000000  *
   265       H         71.15100000  *  160.39100000  * -55.75600000  *
   266       H         69.44200000  *  159.95000000  * -55.73600000  *
   267       C         71.37900000  *  160.85000000  * -53.05700000  *
   268       H         71.56500000  *  160.44500000  * -52.06400000  *
   269       H         72.31500000  *  160.84900000  * -53.61300000  *
   270       H         71.03600000  *  161.88400000  * -52.98400000  *
   271       C         69.19200000  *  159.37200000  * -51.72900000  *
   272       O         69.02000000  *  160.03600000  * -50.68600000  *
   273       N         69.38300000  *  158.05900000  * -51.70500000  *
   274       H         69.46100000  *  157.56600000  * -52.59000000  *
   275       C         69.76200000  *  157.32500000  * -50.51400000  *
   276       H         69.48100000  *  157.88600000  * -49.62500000  *
   277       C         69.01200000  *  156.00300000  * -50.47900000  *
   278       H         69.25300000  *  155.42900000  * -51.37100000  *
   279       H         69.29900000  *  155.43600000  * -49.59300000  *
   280       H         67.94100000  *  156.20000000  * -50.44700000  *
   281       C         71.27900000  *  157.14600000  * -50.54200000  *
   282       O         71.81400000  *  156.47200000  * -51.42800000  *
   283       N         71.97000000  *  157.79100000  * -49.60300000  *
   284       H         71.44500000  *  158.28300000  * -48.88900000  *
   285       C         73.41300000  *  157.73400000  * -49.53500000  *
   286       H         73.80300000  *  157.43200000  * -50.50200000  *
   287       C         73.96100000  *  159.11400000  * -49.18200000  *
   288       H         73.49200000  *  159.84000000  * -49.85100000  *
   289       H         73.62800000  *  159.35800000  * -48.16900000  *
   290       C         75.47300000  *  159.31600000  * -49.26600000  *
   291       H         75.96900000  *  158.63700000  * -48.57100000  *
   292       C         75.94900000  *  159.02000000  * -50.68400000  *
   293       H         75.44100000  *  159.71800000  * -51.34800000  *
   294       H         77.02400000  *  159.18800000  * -50.76300000  *
   295       H         75.74700000  *  157.98700000  * -50.96800000  *
   296       C         75.80400000  *  160.74000000  * -48.87900000  *
   297       H         75.43700000  *  160.94600000  * -47.87600000  *
   298       H         76.88200000  *  160.87900000  * -48.92200000  *
   299       H         75.32000000  *  161.42900000  * -49.57600000  *
   300       C         73.82100000  *  156.71600000  * -48.48500000  *
   301       O         73.39600000  *  156.78100000  * -47.33400000  *
   302       N         74.64100000  *  155.74900000  * -48.88700000  *
   303       H         74.87900000  *  155.72700000  * -49.87700000  *
   304       C         75.13400000  *  154.63700000  * -48.06200000  *
   305       H         74.61500000  *  154.61700000  * -47.10200000  *
   306       C         74.85900000  *  153.32600000  * -48.83400000  *
   307       H         74.41500000  *  153.56600000  * -49.80200000  *
   308       H         75.79400000  *  152.80000000  * -49.03800000  *
   309       C         73.89700000  *  152.35100000  * -48.15600000  *
   310       H         73.02500000  *  152.89300000  * -47.78900000  *
   311       H         73.55800000  *  151.66000000  * -48.92600000  *
   312       C         74.56200000  *  151.56200000  * -47.01300000  *
   313       H         75.57000000  *  151.25900000  * -47.30200000  *
   314       H         74.64700000  *  152.21200000  * -46.13800000  *
   315       C         73.75100000  *  150.30700000  * -46.64000000  *
   316       H         74.17400000  *  149.88700000  * -45.72200000  *
   317       H         72.72000000  *  150.60600000  * -46.42000000  *
   318       N         73.76800000  *  149.28400000  * -47.72700000  *
   319       H         74.70200000  *  148.94200000  * -47.91900000  *
   320       H         73.18200000  *  148.47100000  * -47.49500000  *
   321       H         73.38500000  *  149.65500000  * -48.58800000  *
   322       C         76.62400000  *  154.84800000  * -47.79800000  *
   323       O         77.41700000  *  154.68100000  * -48.71600000  *
   324       N         77.01700000  *  155.22600000  * -46.58100000  *
   325       H         76.29800000  *  155.26800000  * -45.86500000  *
   326       C         78.42200000  *  155.28900000  * -46.15900000  *
   327       H         79.06600000  *  155.59300000  * -46.98900000  *
   328       C         78.56700000  *  156.26000000  * -44.97900000  *
   329       H         78.02700000  *  155.87500000  * -44.10900000  *
   330       H         79.62500000  *  156.33900000  * -44.73000000  *
   331       C         78.01500000  *  157.64300000  * -45.34000000  *
   332       H         78.45100000  *  157.95800000  * -46.27300000  *
   333       H         76.93600000  *  157.57500000  * -45.50000000  *
   334       C         78.25100000  *  158.72500000  * -44.27900000  *
   335       H         77.97800000  *  159.68000000  * -44.73200000  *
   336       H         77.56000000  *  158.53300000  * -43.46900000  *
   337       C         79.67700000  *  158.85000000  * -43.70900000  *
   338       H         80.38400000  *  158.36300000  * -44.39700000  *
   339       H         79.95000000  *  159.91100000  * -43.68600000  *
   340       N         79.78800000  *  158.26900000  * -42.33500000  *
   341       H         79.63700000  *  157.26100000  * -42.37000000  *
   342       H         80.69600000  *  158.42600000  * -41.93200000  *
   343       H         79.10400000  *  158.64600000  * -41.70100000  *
   344       C         78.82300000  *  153.89100000  * -45.72900000  *
   345       O         78.09100000  *  153.31500000  * -44.93700000  *
   346       N         79.90700000  *  153.32000000  * -46.24700000  *
   347       H         80.40500000  *  153.76400000  * -47.01000000  *
   348       C         80.34300000  *  152.02200000  * -45.76800000  *
   349       H         79.49500000  *  151.49800000  * -45.35900000  *
   350       C         80.94400000  *  151.18600000  * -46.89500000  *
   351       H         81.78600000  *  151.78200000  * -47.16900000  *
   352       C         81.42400000  *  149.85200000  * -46.34500000  *
   353       H         80.65600000  *  149.35200000  * -45.75200000  *
   354       H         81.67900000  *  149.19900000  * -47.17900000  *
   355       H         82.34500000  *  149.95700000  * -45.76100000  *
   356       C         79.89700000  *  150.97600000  * -47.99700000  *
   357       H         79.60200000  *  151.87000000  * -48.50000000  *
   358       H         80.28300000  *  150.30500000  * -48.75000000  *
   359       C         78.59100000  *  150.36100000  * -47.52600000  *
   360       H         78.17700000  *  150.90100000  * -46.69000000  *
   361       H         77.89400000  *  150.33700000  * -48.36300000  *
   362       H         78.77100000  *  149.33300000  * -47.20900000  *
   363       C         81.33300000  *  152.07100000  * -44.61400000  *
   364       O         82.16700000  *  152.98000000  * -44.51900000  *
   365       N         81.21100000  *  151.07100000  * -43.74300000  *
   366       H         80.50300000  *  150.36100000  * -43.92800000  *
   367       C         82.04400000  *  150.90200000  * -42.55200000  *
   368       H         81.47500000  *  151.18100000  * -41.66300000  *
   369       H         82.35800000  *  149.86100000  * -42.45900000  *
   370       H         82.94700000  *  151.51400000  * -42.62000000  *
   371       H         81.25700000  *  144.04600000  * -57.89900000  *
   372       C         80.50000000  *  144.84100000  * -57.88800000  *
   373       O         79.71500000  *  144.99000000  * -58.82400000  *
   374       N         80.49900000  *  145.60300000  * -56.79700000  *
   375       H         81.28000000  *  145.52500000  * -56.16600000  *
   376       C         79.57000000  *  146.70600000  * -56.61200000  *
   377       H         78.57500000  *  146.34400000  * -56.42300000  *
   378       C         80.00500000  *  147.61000000  * -55.44200000  *
   379       H         80.89800000  *  148.18000000  * -55.68500000  *
   380       C         78.90600000  *  148.60800000  * -55.12500000  *
   381       H         77.92000000  *  148.14100000  * -55.17600000  *
   382       H         79.04500000  *  148.98700000  * -54.11600000  *
   383       H         78.93800000  *  149.43600000  * -55.83300000  *
   384       C         80.32100000  *  146.76200000  * -54.20900000  *
   385       H         81.19200000  *  146.13400000  * -54.40600000  *
   386       H         80.59400000  *  147.42200000  * -53.38900000  *
   387       C         79.18400000  *  145.87900000  * -53.76500000  *
   388       H         78.77800000  *  145.31100000  * -54.59400000  *
   389       H         79.50900000  *  145.12200000  * -53.06500000  *
   390       H         78.38800000  *  146.48300000  * -53.33500000  *
   391       C         79.54300000  *  147.54500000  * -57.87900000  *
   392       O         78.48200000  *  147.77900000  * -58.45100000  *
   393       N         80.72300000  *  147.98900000  * -58.30900000  *
   394       H         81.55800000  *  147.70100000  * -57.81200000  *
   395       C         80.85900000  *  148.80400000  * -59.51100000  *
   396       H         80.33900000  *  149.74600000  * -59.38600000  *
   397       H         81.92800000  *  148.98500000  * -59.72900000  *
   398       H         80.37800000  *  148.32200000  * -60.38100000  *
   399       H         78.96400000  *  146.08700000  * -61.65600000  *
   400       C         77.87300000  *  146.08700000  * -61.51600000  *
   401       O         77.11500000  *  145.89500000  * -62.46400000  *
   402       N         77.44600000  *  146.31800000  * -60.28000000  *
   403       H         78.13400000  *  146.42500000  * -59.54900000  *
   404       C         76.02800000  *  146.35200000  * -59.94500000  *
   405       H         75.53300000  *  145.47600000  * -60.35900000  *
   406       C         75.84100000  *  146.37400000  * -58.43100000  *
   407       H         76.20500000  *  147.30400000  * -58.01800000  *
   408       H         74.76300000  *  146.35700000  * -58.24200000  *
   409       C         76.47200000  *  145.22200000  * -57.65900000  *
   410       H         77.55000000  *  145.23900000  * -57.74900000  *
   411       C         76.08000000  *  145.34100000  * -56.19200000  *
   412       H         74.99900000  *  145.23000000  * -56.07700000  *
   413       H         76.57300000  *  144.55300000  * -55.62900000  *
   414       H         76.38500000  *  146.30900000  * -55.80100000  *
   415       C         75.99600000  *  143.89000000  * -58.23600000  *
   416       H         76.41500000  *  143.73000000  * -59.22900000  *
   417       H         76.32800000  *  143.07800000  * -57.59100000  *
   418       H         74.90500000  *  143.87400000  * -58.30500000  *
   419       C         75.32200000  *  147.55900000  * -60.54800000  *
   420       O         74.09500000  *  147.56800000  * -60.66200000  *
   421       N         76.08400000  *  148.63100000  * -60.82900000  *
   422       H         77.08200000  *  148.53500000  * -60.67700000  *
   423       C         75.60100000  *  149.83300000  * -61.53400000  *
   424       H         74.83700000  *  150.33500000  * -60.94100000  *
   425       H         76.43800000  *  150.53300000  * -61.75900000  *
   426       H         75.13800000  *  149.54900000  * -62.49200000  *
   427       H         62.79000000  *  145.77200000  * -59.27600000  *
   428       C         63.71000000  *  145.72000000  * -58.67500000  *
   429       O         63.77900000  *  145.02200000  * -57.66400000  *
   430       N         64.72400000  *  146.45200000  * -59.11400000  *
   431       H         64.63800000  *  147.05100000  * -59.92700000  *
   432       C         65.97100000  *  146.53500000  * -58.38100000  *
   433       H         65.88400000  *  146.09200000  * -57.38600000  *
   434       C         67.11600000  *  145.87700000  * -59.11400000  *
   435       H         67.33600000  *  146.42600000  * -60.03000000  *
   436       C         68.35100000  *  145.87800000  * -58.21400000  *
   437       H         68.14700000  *  145.31400000  * -57.31800000  *
   438       H         69.21000000  *  145.44500000  * -58.72400000  *
   439       H         68.64100000  *  146.89000000  * -57.94500000  *
   440       C         66.72800000  *  144.44400000  * -59.47800000  *
   441       H         66.54900000  *  143.87300000  * -58.56400000  *
   442       H         65.81500000  *  144.42400000  * -60.06800000  *
   443       C         67.77400000  *  143.72700000  * -60.29600000  *
   444       H         68.68300000  *  143.57700000  * -59.72200000  *
   445       H         67.37700000  *  142.75300000  * -60.59800000  *
   446       H         68.02300000  *  144.31300000  * -61.18000000  *
   447       C         66.29500000  *  148.01000000  * -58.22000000  *
   448       O         66.21200000  *  148.78000000  * -59.18400000  *
   449       N         66.55100000  *  148.43900000  * -56.98300000  *
   450       H         66.62000000  *  147.75800000  * -56.23100000  *
   451       C         66.88900000  *  149.83500000  * -56.68800000  *
   452       H         66.07400000  *  150.47900000  * -57.02100000  *
   453       C         67.08700000  *  150.04500000  * -55.18300000  *
   454       H         67.87600000  *  149.38200000  * -54.82500000  *
   455       C         67.46800000  *  151.48700000  * -54.84100000  *
   456       H         66.64600000  *  152.16500000  * -55.06600000  *
   457       H         67.70200000  *  151.53700000  * -53.78100000  *
   458       H         68.34800000  *  151.80100000  * -55.39700000  *
   459       C         65.79500000  *  149.73100000  * -54.42500000  *
   460       H         65.53200000  *  148.68200000  * -54.52400000  *
   461       H         65.95100000  *  149.94200000  * -53.37500000  *
   462       H         64.98100000  *  150.34400000  * -54.80500000  *
   463       C         68.15100000  *  150.21300000  * -57.45700000  *
   464       O         69.17900000  *  149.54100000  * -57.33500000  *
   465       N         68.08000000  *  151.28300000  * -58.25100000  *
   466       H         67.22500000  *  151.80400000  * -58.24500000  *
   467       C         69.18900000  *  151.69800000  * -59.08000000  *
   468       H         69.52500000  *  150.81900000  * -59.63900000  *
   469       C         68.73700000  *  152.76800000  * -60.08300000  *
   470       H         67.83400000  *  152.41100000  * -60.57900000  *
   471       H         68.47700000  *  153.68100000  * -59.53700000  *
   472       C         69.79100000  *  153.06900000  * -61.13100000  *
   473       H         70.72100000  *  153.35000000  * -60.64200000  *
   474       H         69.97400000  *  152.16800000  * -61.71600000  *
   475       C         69.35100000  *  154.17900000  * -62.08100000  *
   476       H         68.50200000  *  153.81400000  * -62.66100000  *
   477       H         69.02300000  *  155.05600000  * -61.52200000  *
   478       C         70.49800000  *  154.55900000  * -63.02400000  *
   479       H         71.33900000  *  154.89000000  * -62.40800000  *
   480       H         70.81900000  *  153.66100000  * -63.56600000  *
   481       N         70.11800000  *  155.62600000  * -63.99700000  *
   482       H         69.74700000  *  156.41600000  * -63.48300000  *
   483       H         70.92600000  *  155.93300000  * -64.52500000  *
   484       H         69.41500000  *  155.27800000  * -64.63600000  *
   485       C         70.36000000  *  152.21400000  * -58.25300000  *
   486       O         70.19400000  *  153.07400000  * -57.38700000  *
   487       N         71.53700000  *  151.64500000  * -58.50700000  *
   488       H         71.59600000  *  150.90400000  * -59.18600000  *
   489       C         72.75000000  *  152.07400000  * -57.83600000  *
   490       H         72.53800000  *  152.52600000  * -56.87100000  *
   491       C         73.72700000  *  150.91100000  * -57.67000000  *
   492       H         73.31500000  *  150.22100000  * -56.93700000  *
   493       H         73.77900000  *  150.36900000  * -58.62000000  *
   494       C         75.16700000  *  151.27300000  * -57.28800000  *
   495       H         75.65500000  *  151.80300000  * -58.10000000  *
   496       C         75.18300000  *  152.16500000  * -56.05900000  *
   497       H         74.60800000  *  151.72100000  * -55.25200000  *
   498       H         76.21000000  *  152.29600000  * -55.73500000  *
   499       H         74.78900000  *  153.14000000  * -56.31200000  *
   500       C         75.93300000  *  149.99400000  * -57.01300000  *
   501       H         75.98300000  *  149.42100000  * -57.93300000  *
   502       H         76.94600000  *  150.24200000  * -56.71200000  *
   503       H         75.43500000  *  149.41000000  * -56.23200000  *
   504       C         73.31900000  *  153.11300000  * -58.79500000  *
   505       O         73.76900000  *  152.77900000  * -59.89700000  *
   506       N         73.26700000  *  154.36900000  * -58.37800000  *
   507       H         72.92600000  *  154.57000000  * -57.44900000  *
   508       C         73.73400000  *  155.46600000  * -59.19700000  *
   509       H         73.47500000  *  155.26500000  * -60.23600000  *
   510       C         73.02500000  *  156.74200000  * -58.76000000  *
   511       H         73.45000000  *  157.06300000  * -57.80900000  *
   512       H         73.23600000  *  157.53300000  * -59.48700000  *
   513       C         71.51300000  *  156.60300000  * -58.58700000  *
   514       H         71.27400000  *  155.80900000  * -57.88500000  *
   515       C         70.97400000  *  157.88000000  * -58.01900000  *
   516       H         71.37000000  *  158.74600000  * -58.56000000  *
   517       H         69.88800000  *  157.89100000  * -58.09300000  *
   518       H         71.22100000  *  157.96000000  * -56.96600000  *
   519       C         70.85100000  *  156.29000000  * -59.92300000  *
   520       H         71.28300000  *  155.39700000  * -60.34200000  *
   521       H         69.78900000  *  156.14400000  * -59.75100000  *
   522       H         71.00300000  *  157.12700000  * -60.60700000  *
   523       C         75.24500000  *  155.67800000  * -59.15800000  *
   524       O         75.83900000  *  156.04700000  * -60.17600000  *
   525       N         75.86200000  *  155.44600000  * -57.99600000  *
   526       H         75.29500000  *  155.17900000  * -57.20400000  *
   527       C         77.30800000  *  155.64700000  * -57.82900000  *
   528       H         77.80800000  *  155.40400000  * -58.76600000  *
   529       C         77.60000000  *  157.11700000  * -57.51900000  *
   530       H         76.91700000  *  157.54400000  * -56.80300000  *
   531       H         78.58200000  *  157.17000000  * -57.04800000  *
   532       C         77.65600000  *  157.97500000  * -58.75600000  *
   533       O         78.67800000  *  157.91700000  * -59.48300000  *
   534       O         76.67400000  *  158.70400000  * -59.00000000  *
   535       C         77.97900000  *  154.81700000  * -56.73400000  *
   536       O         77.37100000  *  154.52100000  * -55.70400000  *
   537       N         79.24700000  *  154.47700000  * -56.96600000  *
   538       H         79.69800000  *  154.82400000  * -57.79800000  *
   539       C         80.06100000  *  153.73800000  * -56.00300000  *
   540       H         79.55400000  *  153.69900000  * -55.05200000  *
   541       C         80.36600000  *  152.29800000  * -56.50400000  *
   542       H         79.42700000  *  151.75200000  * -56.56200000  *
   543       C         80.98100000  *  152.34300000  * -57.88400000  *
   544       H         82.06600000  *  152.43300000  * -57.82100000  *
   545       H         80.74600000  *  151.41400000  * -58.37900000  *
   546       H         80.59600000  *  153.14500000  * -58.51000000  *
   547       C         81.29900000  *  151.58800000  * -55.53900000  *
   548       H         80.81100000  *  151.54900000  * -54.57200000  *
   549       H         81.47300000  *  150.57200000  * -55.87800000  *
   550       H         82.25900000  *  152.09200000  * -55.44900000  *
   551       C         81.36500000  *  154.53600000  * -55.81000000  *
   552       O         82.27000000  *  154.48900000  * -56.64700000  *
   553       N         81.45200000  *  155.28200000  * -54.71000000  *
   554       H         80.67600000  *  155.30400000  * -54.06400000  *
   555       C         82.62100000  *  156.11100000  * -54.44300000  *
   556       H         83.20500000  *  156.21800000  * -55.35800000  *
   557       H         82.32200000  *  157.12800000  * -54.14500000  *
   558       H         83.29700000  *  155.73900000  * -53.65600000  *
   559       H         84.58000000  *  155.17100000  * -47.07300000  *
   560       C         84.22500000  *  154.98400000  * -48.09100000  *
   561       O         84.63900000  *  155.65900000  * -49.04200000  *
   562       N         83.35800000  *  153.99100000  * -48.22200000  *
   563       H         83.13600000  *  153.42800000  * -47.41700000  *
   564       C         82.77600000  *  153.65100000  * -49.50600000  *
   565       H         83.37000000  *  154.04700000  * -50.31700000  *
   566       C         82.71900000  *  152.14000000  * -49.66000000  *
   567       H         83.74000000  *  151.87500000  * -49.95700000  *
   568       H         82.64400000  *  151.54600000  * -48.78400000  *
   569       C         81.82600000  *  151.61900000  * -50.77900000  *
   570       H         80.79100000  *  151.88400000  * -50.58700000  *
   571       C         82.25800000  *  152.23100000  * -52.09200000  *
   572       H         83.31100000  *  152.49100000  * -52.08900000  *
   573       H         82.09300000  *  151.51300000  * -52.88400000  *
   574       H         81.65400000  *  153.10900000  * -52.31200000  *
   575       C         81.89900000  *  150.09400000  * -50.82200000  *
   576       H         81.91300000  *  149.66400000  * -49.82700000  *
   577       H         81.05200000  *  149.70600000  * -51.39100000  *
   578       H         82.82500000  *  149.80300000  * -51.32100000  *
   579       C         81.36700000  *  154.23200000  * -49.54800000  *
   580       O         80.51800000  *  153.85700000  * -48.74500000  *
   581       N         81.13100000  *  155.16100000  * -50.46700000  *
   582       H         81.84500000  *  155.34800000  * -51.16200000  *
   583       C         79.82200000  *  155.78100000  * -50.60800000  *
   584       H         79.27400000  *  155.67000000  * -49.68700000  *
   585       C         79.96700000  *  157.27800000  * -50.86800000  *
   586       H         80.42300000  *  157.50400000  * -51.79700000  *
   587       H         78.95400000  *  157.66400000  * -50.98900000  *
   588       C         80.57600000  *  158.04300000  * -49.72300000  *
   589       C         79.79300000  *  158.48000000  * -48.65600000  *
   590       H         78.73500000  *  158.25400000  * -48.66900000  *
   591       C         80.35600000  *  159.18600000  * -47.59400000  *
   592       H         79.75300000  *  159.56200000  * -46.79700000  *
   593       C         81.71600000  *  159.45200000  * -47.58700000  *
   594       O         82.27600000  *  160.12500000  * -46.52100000  *
   595       H         83.20600000  *  160.30800000  * -46.74500000  *
   596       C         82.51400000  *  159.02600000  * -48.63700000  *
   597       H         83.58200000  *  159.23300000  * -48.65000000  *
   598       C         81.94100000  *  158.32800000  * -49.69800000  *
   599       H         82.57400000  *  157.98100000  * -50.50200000  *
   600       C         79.04800000  *  155.15800000  * -51.76500000  *
   601       O         79.54400000  *  155.08000000  * -52.88800000  *
   602       N         77.86200000  *  154.62400000  * -51.49500000  *
   603       H         77.53700000  *  154.64700000  * -50.53500000  *
   604       C         76.98200000  *  154.05300000  * -52.51100000  *
   605       H         77.50600000  *  153.99900000  * -53.45900000  *
   606       C         76.55200000  *  152.62100000  * -52.14700000  *
   607       H         75.87100000  *  152.66500000  * -51.30600000  *
   608       H         76.00100000  *  152.21400000  * -52.99600000  *
   609       C         77.69200000  *  151.65300000  * -51.79000000  *
   610       H         78.21100000  *  152.00400000  * -50.89800000  *
   611       C         77.12700000  *  150.26300000  * -51.50200000  *
   612       H         76.62700000  *  149.86800000  * -52.38900000  *
   613       H         77.93500000  *  149.58800000  * -51.21800000  *
   614       H         76.41500000  *  150.31800000  * -50.68000000  *
   615       C         78.69100000  *  151.52800000  * -52.93300000  *
   616       H         79.20800000  *  152.47400000  * -53.07200000  *
   617       H         79.43100000  *  150.76900000  * -52.68700000  *
   618       H         78.17400000  *  151.25700000  * -53.85400000  *
   619       C         75.78600000  *  154.98400000  * -52.67300000  *
   620       O         75.10300000  *  155.26200000  * -51.68300000  *
   621       N         75.54700000  *  155.50800000  * -53.87800000  *
   622       H         76.14500000  *  155.25500000  * -54.66000000  *
   623       C         74.40900000  *  156.37500000  * -54.09400000  *
   624       H         73.97600000  *  156.70200000  * -53.15000000  *
   625       C         74.83400000  *  157.63700000  * -54.81800000  *
   626       H         75.25500000  *  157.34500000  * -55.76600000  *
   627       C         73.61400000  *  158.52200000  * -55.10900000  *
   628       H         73.11700000  *  158.76900000  * -54.17500000  *
   629       H         73.94100000  *  159.43100000  * -55.61500000  *
   630       H         72.91600000  *  158.00900000  * -55.76200000  *
   631       C         75.84000000  *  158.38200000  * -53.94900000  *
   632       H         75.28100000  *  158.78400000  * -53.13000000  *
   633       H         76.65600000  *  157.75800000  * -53.60500000  *
   634       H         76.26100000  *  159.20400000  * -54.52500000  *
   635       C         73.31400000  *  155.64400000  * -54.85300000  *
   636       O         73.49500000  *  155.22100000  * -55.99400000  *
   637       N         72.20800000  *  155.38400000  * -54.16200000  *
   638       H         72.13600000  *  155.73700000  * -53.21200000  *
   639       C         71.03100000  *  154.71700000  * -54.71000000  *
   640       H         71.28400000  *  154.26100000  * -55.66300000  *
   641       C         70.56900000  *  153.61100000  * -53.75600000  *
   642       H         70.42000000  *  154.03800000  * -52.76400000  *
   643       H         69.59900000  *  153.25500000  * -54.09700000  *
   644       C         71.50000000  *  152.41800000  * -53.64600000  *
   645       C         71.35100000  *  151.32600000  * -54.52300000  *
   646       H         70.60200000  *  151.35000000  * -55.30000000  *
   647       C         72.16800000  *  150.19000000  * -54.38600000  *
   648       H         72.04100000  *  149.34800000  * -55.05400000  *
   649       C         73.14500000  *  150.14400000  * -53.37700000  *
   650       H         73.77400000  *  149.26900000  * -53.27100000  *
   651       C         73.30200000  *  151.23600000  * -52.50600000  *
   652       H         74.04500000  *  151.19400000  * -51.72400000  *
   653       C         72.48500000  *  152.37400000  * -52.64100000  *
   654       H         72.60400000  *  153.20800000  * -51.96200000  *
   655       C         69.90400000  *  155.72600000  * -54.94500000  *
   656       O         69.76400000  *  156.69400000  * -54.19600000  *
   657       N         69.08200000  *  155.51000000  * -55.97300000  *
   658       H         69.23700000  *  154.68800000  * -56.54800000  *
   659       C         67.82000000  *  156.25300000  * -56.12100000  *
   660       H         68.06500000  *  157.30100000  * -56.29700000  *
   661       C         67.03100000  *  155.74600000  * -57.34200000  *
   662       H         66.17700000  *  156.40800000  * -57.48400000  *
   663       H         67.66600000  *  155.80700000  * -58.22600000  *
   664       C         66.52400000  *  154.30300000  * -57.18400000  *
   665       H         67.38200000  *  153.64400000  * -57.04300000  *
   666       H         65.89800000  *  154.23700000  * -56.29800000  *
   667       C         65.68200000  *  153.80100000  * -58.35900000  *
   668       O         65.16900000  *  154.61200000  * -59.16400000  *
   669       O         65.49100000  *  152.56700000  * -58.44000000  *
   670       C         66.98200000  *  156.17200000  * -54.82800000  *
   671       O         66.91400000  *  155.11800000  * -54.19400000  *
   672       N         66.35400000  *  157.27000000  * -54.40200000  *
   673       H         66.39400000  *  158.11700000  * -54.95100000  *
   674       C         65.49900000  *  157.25500000  * -53.21100000  *
   675       H         65.98000000  *  156.64200000  * -52.44500000  *
   676       C         65.37700000  *  158.67200000  * -52.64400000  *
   677       H         66.37400000  *  159.03500000  * -52.39800000  *
   678       H         64.96200000  *  159.32600000  * -53.41200000  *
   679       C         64.52300000  *  158.76900000  * -51.39400000  *
   680       C         63.22200000  *  159.30400000  * -51.46100000  *
   681       H         62.82400000  *  159.65100000  * -52.40500000  *
   682       C         62.43300000  *  159.38500000  * -50.30100000  *
   683       H         61.43400000  *  159.79500000  * -50.35700000  *
   684       C         62.93900000  *  158.92900000  * -49.07200000  *
   685       H         62.33000000  *  158.98600000  * -48.18000000  *
   686       C         64.23800000  *  158.39600000  * -49.00200000  *
   687       H         64.62700000  *  158.04900000  * -48.05500000  *
   688       C         65.03000000  *  158.31600000  * -50.16200000  *
   689       H         66.02800000  *  157.90500000  * -50.10600000  *
   690       C         64.11900000  *  156.64400000  * -53.50200000  *
   691       O         63.46900000  *  157.00400000  * -54.48700000  *
   692       N         63.65100000  *  155.77000000  * -52.60700000  *
   693       H         64.26200000  *  155.50400000  * -51.84400000  *
   694       C         62.25900000  *  155.31400000  * -52.52500000  *
   695       H         61.65400000  *  155.83800000  * -53.26800000  *
   696       C         62.15500000  *  153.80200000  * -52.79000000  *
   697       H         62.88100000  *  153.27800000  * -52.17000000  *
   698       H         61.15900000  *  153.48500000  * -52.47400000  *
   699       C         62.34000000  *  153.41700000  * -54.27100000  *
   700       H         62.02000000  *  154.24100000  * -54.90900000  *
   701       C         63.79700000  *  153.07200000  * -54.58000000  *
   702       H         64.13500000  *  152.27200000  * -53.92400000  *
   703       H         63.89600000  *  152.76600000  * -55.62100000  *
   704       H         64.42600000  *  153.94500000  * -54.42000000  *
   705       C         61.48800000  *  152.19500000  * -54.62100000  *
   706       H         60.44100000  *  152.39500000  * -54.39300000  *
   707       H         61.56800000  *  151.98400000  * -55.68600000  *
   708       H         61.81800000  *  151.32600000  * -54.05500000  *
   709       C         61.68800000  *  155.66800000  * -51.14800000  *
   710       O         62.40300000  *  155.65500000  * -50.14900000  *
   711       N         60.41000000  *  156.03600000  * -51.09800000  *
   712       H         59.88900000  *  156.05500000  * -51.96600000  *
   713       C         59.80800000  *  156.73000000  * -49.95500000  *
   714       H         60.49700000  *  157.51400000  * -49.63900000  *
   715       C         58.52100000  *  157.42200000  * -50.42700000  *
   716       H         57.76400000  *  156.66200000  * -50.62000000  *
   717       H         58.16500000  *  158.07000000  * -49.62700000  *
   718       C         58.68200000  *  158.25300000  * -51.68000000  *
   719       N         58.74300000  *  157.75000000  * -52.98500000  *
   720       C         58.91600000  *  158.81800000  * -53.78400000  *
   721       H         59.00200000  *  158.77900000  * -54.86500000  *
   722       N         58.96700000  *  159.94400000  * -53.05300000  *
   723       H         59.08900000  *  160.88000000  * -53.43100000  *
   724       C         58.82400000  *  159.60900000  * -51.72400000  *
   725       H         58.82600000  *  160.28300000  * -50.87600000  *
   726       C         59.55100000  *  155.86800000  * -48.70500000  *
   727       O         59.43000000  *  156.42400000  * -47.61200000  *
   728       N         59.46400000  *  154.53900000  * -48.83500000  *
   729       H         59.58700000  *  154.14000000  * -49.75600000  *
   730       C         59.09700000  *  153.61800000  * -47.74600000  *
   731       H         59.55700000  *  153.96900000  * -46.82200000  *
   732       C         57.56400000  *  153.65800000  * -47.56500000  *
   733       H         57.28200000  *  154.67500000  * -47.28900000  *
   734       H         57.07600000  *  153.41800000  * -48.51100000  *
   735       C         57.04400000  *  152.70000000  * -46.48300000  *
   736       H         56.92600000  *  151.70700000  * -46.91200000  *
   737       H         57.77200000  *  152.64300000  * -45.67500000  *
   738       C         55.72100000  *  153.15400000  * -45.87700000  *
   739       O         55.67300000  *  153.86300000  * -44.88600000  *
   740       N         54.59500000  *  152.76800000  * -46.43900000  *
   741       H         53.74100000  *  153.09100000  * -46.01000000  *
   742       H         54.60500000  *  152.21700000  * -47.27800000  *
   743       C         59.61200000  *  152.18600000  * -47.99400000  *
   744       O         59.68400000  *  151.74000000  * -49.14100000  *
   745       N         59.95300000  *  151.45700000  * -46.92400000  *
   746       H         59.85800000  *  151.88200000  * -46.00200000  *
   747       C         60.28100000  *  150.02300000  * -46.99300000  *
   748       H         60.57800000  *  149.80300000  * -48.01500000  *
   749       C         61.50700000  *  149.69200000  * -46.12300000  *
   750       H         61.84100000  *  148.68800000  * -46.38900000  *
   751       H         62.31200000  *  150.38000000  * -46.38800000  *
   752       C         61.28700000  *  149.73300000  * -44.60700000  *
   753       O         60.30700000  *  149.13000000  * -44.12300000  *
   754       O         62.14900000  *  150.31200000  * -43.90500000  *
   755       C         59.07500000  *  149.10700000  * -46.69700000  *
   756       O         58.04200000  *  149.53800000  * -46.16600000  *
   757       N         59.19100000  *  147.81900000  * -47.04800000  *
   758       H         60.03800000  *  147.50900000  * -47.52500000  *
   759       C         58.10100000  *  146.88000000  * -46.84100000  *
   760       H         57.21800000  *  147.32500000  * -47.29300000  *
   761       C         58.41200000  *  145.57700000  * -47.59200000  *
   762       H         58.61300000  *  145.80400000  * -48.64400000  *
   763       H         59.28800000  *  145.12100000  * -47.15800000  *
   764       C         57.28700000  *  144.52700000  * -47.51900000  *
   765       H         57.05600000  *  144.28000000  * -46.48700000  *
   766       C         56.00700000  *  145.04400000  * -48.19600000  *
   767       H         56.23500000  *  145.37800000  * -49.20200000  *
   768       H         55.26800000  *  144.24500000  * -48.23100000  *
   769       H         55.59500000  *  145.87000000  * -47.62900000  *
   770       C         57.76800000  *  143.24900000  * -48.17500000  *
   771       H         58.61500000  *  142.85400000  * -47.62000000  *
   772       H         56.97300000  *  142.50400000  * -48.17100000  *
   773       H         58.06400000  *  143.44500000  * -49.20700000  *
   774       C         57.76400000  *  146.61300000  * -45.36900000  *
   775       O         56.60900000  *  146.37600000  * -45.03000000  *
   776       N         58.75700000  *  146.67700000  * -44.48800000  *
   777       H         59.64000000  *  147.08600000  * -44.79000000  *
   778       C         58.49100000  *  146.46700000  * -43.07300000  *
   779       H         57.97900000  *  145.55100000  * -42.87200000  *
   780       C         59.78200000  *  146.47800000  * -42.25400000  *
   781       H         60.44800000  *  145.70000000  * -42.62000000  *
   782       H         60.28600000  *  147.44000000  * -42.35600000  *
   783       C         59.49200000  *  146.22900000  * -40.76500000  *
   784       H         58.94200000  *  147.08300000  * -40.37400000  *
   785       H         58.87100000  *  145.33200000  * -40.67600000  *
   786       C         60.74500000  *  146.03800000  * -39.93500000  *
   787       H         61.36100000  *  145.25900000  * -40.37900000  *
   788       H         61.30800000  *  146.97100000  * -39.90700000  *
   789       C         60.37600000  *  145.60700000  * -38.51700000  *
   790       H         59.98500000  *  144.58900000  * -38.53700000  *
   791       H         61.27900000  *  145.61300000  * -37.90300000  *
   792       N         59.34600000  *  146.53100000  * -37.94700000  *
   793       H         58.44600000  *  146.48100000  * -38.44300000  *
   794       H         59.09000000  *  146.27800000  * -37.00400000  *
   795       H         59.61300000  *  147.50600000  * -37.97800000  *
   796       C         57.55800000  *  147.53800000  * -42.51200000  *
   797       O         56.61300000  *  147.23400000  * -41.78300000  *
   798       N         57.83600000  *  148.81600000  * -42.79700000  *
   799       H         58.66300000  *  149.01300000  * -43.36500000  *
   800       C         56.99600000  *  149.92300000  * -42.32000000  *
   801       H         56.88100000  *  149.82700000  * -41.23900000  *
   802       C         57.66300000  *  151.27700000  * -42.60700000  *
   803       H         58.66000000  *  151.27900000  * -42.16500000  *
   804       H         57.75800000  *  151.41900000  * -43.68400000  *
   805       C         56.84200000  *  152.42800000  * -41.99800000  *
   806       H         55.87800000  *  152.48800000  * -42.50400000  *
   807       H         56.66600000  *  152.21800000  * -40.94200000  *
   808       C         57.54800000  *  153.78400000  * -42.11700000  *
   809       H         58.47400000  *  153.75500000  * -41.54100000  *
   810       H         57.77700000  *  153.98400000  * -43.16500000  *
   811       C         56.62800000  *  154.88300000  * -41.56700000  *
   812       H         55.71000000  *  154.89900000  * -42.16200000  *
   813       H         56.35400000  *  154.62600000  * -40.53900000  *
   814       N         57.27500000  *  156.22000000  * -41.59400000  *
   815       H         57.50800000  *  156.49800000  * -42.53600000  *
   816       H         56.66000000  *  156.92500000  * -41.21300000  *
   817       H         58.12100000  *  156.23000000  * -41.04400000  *
   818       C         55.59600000  *  149.82000000  * -42.91900000  *
   819       O         54.61400000  *  150.04500000  * -42.21900000  *
   820       N         55.49500000  *  149.42600000  * -44.18900000  *
   821       H         56.35000000  *  149.26300000  * -44.71300000  *
   822       C         54.20500000  *  149.26000000  * -44.85200000  *
   823       H         53.62600000  *  150.17500000  * -44.72500000  *
   824       C         54.41000000  *  148.98800000  * -46.34000000  *
   825       H         54.98900000  *  149.80200000  * -46.77700000  *
   826       H         55.00200000  *  148.07700000  * -46.45200000  *
   827       C         53.12600000  *  148.85300000  * -47.10800000  *
   828       C         52.23100000  *  149.92200000  * -47.18600000  *
   829       H         52.46300000  *  150.85600000  * -46.69900000  *
   830       C         51.01500000  *  149.79500000  * -47.88400000  *
   831       H         50.32500000  *  150.62800000  * -47.91800000  *
   832       C         50.69700000  *  148.60300000  * -48.50200000  *
   833       H         49.75200000  *  148.50200000  * -49.02000000  *
   834       C         51.58700000  *  147.52100000  * -48.43200000  *
   835       H         51.33500000  *  146.58300000  * -48.91200000  *
   836       C         52.79500000  *  147.65400000  * -47.73300000  *
   837       H         53.46700000  *  146.81000000  * -47.67200000  *
   838       C         53.37400000  *  148.12200000  * -44.22700000  *
   839       O         52.16900000  *  148.28300000  * -44.00900000  *
   840       N         54.01600000  *  146.98100000  * -43.96600000  *
   841       H         55.00900000  *  146.90600000  * -44.17900000  *
   842       C         53.33800000  *  145.83600000  * -43.34100000  *
   843       H         52.47600000  *  145.52800000  * -43.93400000  *
   844       C         54.29200000  *  144.65000000  * -43.17000000  *
   845       H         55.15800000  *  145.02700000  * -42.63600000  *
   846       H         53.80700000  *  143.89200000  * -42.54700000  *
   847       C         54.73100000  *  144.00400000  * -44.46100000  *
   848       H         53.84700000  *  143.61400000  * -44.95900000  *
   849       H         55.19200000  *  144.69400000  * -45.15000000  *
   850       S         55.79700000  *  142.58100000  * -44.15400000  *
   851       C         57.05400000  *  143.29200000  * -43.18800000  *
   852       H         56.67800000  *  143.65800000  * -42.23500000  *
   853       H         57.80700000  *  142.53400000  * -42.98200000  *
   854       H         57.44300000  *  144.07900000  * -43.80900000  *
   855       C         52.84400000  *  146.26000000  * -41.95900000  *
   856       O         51.68200000  *  146.03200000  * -41.61400000  *
   857       N         53.72600000  *  146.88400000  * -41.17900000  *
   858       H         54.70100000  *  146.95700000  * -41.45300000  *
   859       C         53.34300000  *  147.35100000  * -39.84600000  *
   860       H         53.03400000  *  146.49700000  * -39.23800000  *
   861       C         54.50500000  *  148.07700000  * -39.15700000  *
   862       H         54.94100000  *  148.81500000  * -39.83000000  *
   863       H         54.12400000  *  148.60600000  * -38.28400000  *
   864       C         55.58400000  *  147.11500000  * -38.68500000  *
   865       O         55.26200000  *  145.90900000  * -38.57600000  *
   866       O         56.73300000  *  147.55200000  * -38.41700000  *
   867       C         52.15000000  *  148.27900000  * -39.96300000  *
   868       O         51.20300000  *  148.18000000  * -39.18700000  *
   869       N         52.18300000  *  149.16200000  * -40.95500000  *
   870       H         53.01600000  *  149.23700000  * -41.51800000  *
   871       C         51.08600000  *  150.10000000  * -41.17300000  *
   872       H         50.93100000  *  150.67400000  * -40.25800000  *
   873       C         51.42800000  *  151.06800000  * -42.31500000  *
   874       H         51.45500000  *  150.53900000  * -43.26600000  *
   875       H         50.66000000  *  151.83800000  * -42.36800000  *
   876       H         52.39300000  *  151.53600000  * -42.12800000  *
   877       C         49.78900000  *  149.37000000  * -41.49900000  *
   878       O         48.71100000  *  149.83600000  * -41.15600000  *
   879       N         49.90500000  *  148.22900000  * -42.16400000  *
   880       H         50.83800000  *  147.88500000  * -42.38200000  *
   881       C         48.74000000  *  147.45400000  * -42.57500000  *
   882       H         47.85700000  *  148.08600000  * -42.62800000  *
   883       H         48.90600000  *  147.02300000  * -43.58600000  *
   884       H         48.52600000  *  146.61900000  * -41.88800000  *
   885       H         72.54500000  *  137.05800000  * -55.15200000  *
   886       C         72.38600000  *  137.90500000  * -54.47400000  *
   887       O         73.28300000  *  138.71900000  * -54.28600000  *
   888       N         71.20100000  *  138.01500000  * -53.89800000  *
   889       H         70.47300000  *  137.31400000  * -54.05700000  *
   890       C         70.96800000  *  139.10000000  * -52.94900000  *
   891       H         71.50000000  *  140.00600000  * -53.22900000  *
   892       C         69.47700000  *  139.40500000  * -52.82500000  *
   893       H         69.09300000  *  139.71900000  * -53.79200000  *
   894       H         68.93000000  *  138.50600000  * -52.53300000  *
   895       C         69.17800000  *  140.45400000  * -51.81200000  *
   896       N         69.23000000  *  140.42300000  * -50.45900000  *
   897       C         68.94700000  *  141.69100000  * -50.01400000  *
   898       H         68.96900000  *  142.01200000  * -48.98400000  *
   899       N         68.72400000  *  142.47200000  * -51.05500000  *
   900       H         68.47200000  *  143.44500000  * -51.00700000  *
   901       C         68.85400000  *  141.75000000  * -52.15500000  *
   902       H         68.77100000  *  142.12600000  * -53.16500000  *
   903       C         71.52100000  *  138.65700000  * -51.58300000  *
   904       O         72.28000000  *  139.38000000  * -50.94700000  *
   905       N         71.11400000  *  137.47100000  * -51.14500000  *
   906       H         70.37100000  *  137.01600000  * -51.66500000  *
   907       C         71.55500000  *  136.88000000  * -49.87700000  *
   908       H         71.18200000  *  135.84900000  * -49.87900000  *
   909       C         73.07600000  *  136.85300000  * -49.83700000  *
   910       H         73.53100000  *  137.83300000  * -49.86900000  *
   911       H         73.36600000  *  136.47900000  * -48.85100000  *
   912       C         73.64700000  *  135.85900000  * -50.81700000  *
   913       H         73.29800000  *  134.87100000  * -50.67200000  *
   914       H         73.21600000  *  136.10500000  * -51.78700000  *
   915       C         75.11700000  *  136.08400000  * -50.99900000  *
   916       H         75.61200000  *  135.95400000  * -50.03300000  *
   917       H         75.49500000  *  135.33200000  * -51.69500000  *
   918       N         75.35800000  *  137.42700000  * -51.50600000  *
   919       H         74.62100000  *  138.12700000  * -51.38200000  *
   920       C         76.54800000  *  137.85900000  * -51.89000000  *
   921       N         77.59300000  *  137.04400000  * -51.81500000  *
   922       H         77.44700000  *  136.21200000  * -51.26800000  *
   923       H         78.49900000  *  137.44300000  * -51.92100000  *
   924       N         76.69000000  *  139.09300000  * -52.35600000  *
   925       H         75.86000000  *  139.69200000  * -52.33800000  *
   926       H         77.56200000  *  139.47800000  * -52.67100000  *
   927       C         71.03700000  *  137.42400000  * -48.54200000  *
   928       O         71.18700000  *  136.76800000  * -47.50900000  *
   929       N         70.43700000  *  138.60400000  * -48.51600000  *
   930       H         70.32800000  *  139.16900000  * -49.34700000  *
   931       C         69.93700000  *  139.07600000  * -47.23100000  *
   932       H         69.76500000  *  138.24900000  * -46.54100000  *
   933       C         70.93500000  *  140.04200000  * -46.56200000  *
   934       H         71.90900000  *  139.56600000  * -46.50900000  *
   935       H         71.04400000  *  140.94300000  * -47.17900000  *
   936       C         70.51300000  *  140.42800000  * -45.14700000  *
   937       O         70.17200000  *  139.51500000  * -44.35500000  *
   938       O         70.51000000  *  141.64400000  * -44.82500000  *
   939       C         68.58700000  *  139.73400000  * -47.37800000  *
   940       O         68.35000000  *  140.81000000  * -46.83500000  *
   941       N         67.68700000  *  139.08300000  * -48.11000000  *
   942       H         67.94300000  *  138.20800000  * -48.54500000  *
   943       C         66.35900000  *  139.64900000  * -48.29900000  *
   944       H         66.47700000  *  140.66700000  * -48.65900000  *
   945       C         65.54600000  *  138.81300000  * -49.28800000  *
   946       H         65.58300000  *  137.78400000  * -48.94500000  *
   947       H         64.50600000  *  139.14000000  * -49.25500000  *
   948       C         66.02700000  *  138.85500000  * -50.73600000  *
   949       H         67.06400000  *  138.52800000  * -50.78200000  *
   950       C         65.17300000  *  137.91700000  * -51.58300000  *
   951       H         64.15900000  *  138.30500000  * -51.68800000  *
   952       H         65.63400000  *  137.80700000  * -52.55000000  *
   953       H         65.13400000  *  136.93500000  * -51.11000000  *
   954       C         65.92100000  *  140.27700000  * -51.26400000  *
   955       H         66.42000000  *  140.99600000  * -50.63300000  *
   956       H         66.44200000  *  140.27500000  * -52.20900000  *
   957       H         64.88200000  *  140.56100000  * -51.39700000  *
   958       C         65.59400000  *  139.73400000  * -46.98200000  *
   959       O         65.58600000  *  138.79200000  * -46.16600000  *
   960       N         64.95900000  *  140.85700000  * -46.74200000  *
   961       H         64.96700000  *  141.58800000  * -47.44100000  *
   962       C         64.17200000  *  141.06500000  * -45.54200000  *
   963       H         63.56100000  *  140.17400000  * -45.40000000  *
   964       C         65.05300000  *  141.23200000  * -44.28300000  *
   965       H         64.41800000  *  141.29400000  * -43.39900000  *
   966       H         65.65300000  *  140.32900000  * -44.16700000  *
   967       C         65.98900000  *  142.44800000  * -44.28800000  *
   968       H         66.39900000  *  142.59200000  * -45.28500000  *
   969       H         65.43200000  *  143.33800000  * -43.99700000  *
   970       C         67.14600000  *  142.19800000  * -43.31200000  *
   971       H         66.74900000  *  141.93000000  * -42.33100000  *
   972       H         67.72900000  *  141.35600000  * -43.69400000  *
   973       C         68.04900000  *  143.42700000  * -43.17200000  *
   974       H         68.13900000  *  143.91600000  * -44.14700000  *
   975       H         67.57000000  *  144.13600000  * -42.48700000  *
   976       N         69.39400000  *  143.03600000  * -42.67400000  *
   977       H         69.87500000  *  142.44600000  * -43.36700000  *
   978       H         69.96400000  *  143.85000000  * -42.48200000  *
   979       H         69.31700000  *  142.51100000  * -41.81200000  *
   980       C         63.26800000  *  142.23100000  * -45.83400000  *
   981       O         63.62900000  *  143.07500000  * -46.65400000  *
   982       N         62.11200000  *  142.30300000  * -45.18600000  *
   983       C         61.62600000  *  141.34600000  * -44.17100000  *
   984       H         62.10000000  *  141.53200000  * -43.20900000  *
   985       H         61.74500000  *  140.31100000  * -44.47600000  *
   986       C         60.16400000  *  141.66900000  * -44.09500000  *
   987       H         59.73700000  *  141.34900000  * -43.14300000  *
   988       H         59.63700000  *  141.20600000  * -44.93200000  *
   989       C         60.16000000  *  143.18900000  * -44.24800000  *
   990       H         60.51600000  *  143.64900000  * -43.32100000  *
   991       H         59.20200000  *  143.56500000  * -44.57400000  *
   992       C         61.14500000  *  143.38000000  * -45.40300000  *
   993       H         60.63400000  *  143.20500000  * -46.34500000  *
   994       C         61.77100000  *  144.77100000  * -45.44800000  *
   995       O         61.39200000  *  145.58400000  * -46.27300000  *
   996       N         62.73100000  *  145.08700000  * -44.56100000  *
   997       H         62.97500000  *  144.39800000  * -43.86600000  *
   998       C         63.44900000  *  146.38600000  * -44.53300000  *
   999       H         62.71700000  *  147.19100000  * -44.44700000  *
  1000       C         64.39200000  *  146.45300000  * -43.31800000  *
  1001       H         65.08300000  *  145.61100000  * -43.35600000  *
  1002       H         64.98300000  *  147.36900000  * -43.39100000  *
  1003       C         63.68200000  *  146.47300000  * -41.95800000  *
  1004       H         62.98300000  *  147.31000000  * -41.93800000  *
  1005       H         63.12500000  *  145.54800000  * -41.82300000  *
  1006       C         64.67500000  *  146.60800000  * -40.80100000  *
  1007       O         65.69300000  *  145.93200000  * -40.73800000  *
  1008       N         64.42400000  *  147.47000000  * -39.84000000  *
  1009       H         65.08900000  *  147.54700000  * -39.08400000  *
  1010       H         63.61500000  *  148.07100000  * -39.87800000  *
  1011       C         64.30000000  *  146.67700000  * -45.78800000  *
  1012       O         64.53900000  *  147.83500000  * -46.12500000  *
  1013       N         64.76200000  *  145.63100000  * -46.47700000  *
  1014       H         64.45100000  *  144.71300000  * -46.19300000  *
  1015       C         65.53800000  *  145.69800000  * -47.71800000  *
  1016       H         66.09600000  *  146.63600000  * -47.75200000  *
  1017       C         66.55500000  *  144.52700000  * -47.75000000  *
  1018       H         66.05900000  *  143.60000000  * -47.47800000  *
  1019       H         66.92500000  *  144.40100000  * -48.76500000  *
  1020       C         67.78700000  *  144.72100000  * -46.87500000  *
  1021       O         68.11000000  *  145.81200000  * -46.43000000  *
  1022       N         68.53300000  *  143.67100000  * -46.60200000  *
  1023       H         69.40400000  *  143.81300000  * -46.11800000  *
  1024       H         68.27600000  *  142.72300000  * -46.86400000  *
  1025       C         64.63300000  *  145.70700000  * -48.96800000  *
  1026       O         65.15500000  *  145.62000000  * -50.07800000  *
  1027       N         63.30000000  *  145.80300000  * -48.83400000  *
  1028       H         62.89500000  *  145.87300000  * -47.90900000  *
  1029       C         62.40600000  *  145.84500000  * -49.97900000  *
  1030       H         62.94700000  *  145.74800000  * -50.91900000  *
  1031       C         61.36900000  *  144.72100000  * -49.88900000  *
  1032       H         60.76900000  *  144.86100000  * -48.99200000  *
  1033       H         60.74400000  *  144.79800000  * -50.77200000  *
  1034       C         62.03600000  *  143.32400000  * -49.85900000  *
  1035       H         62.67100000  *  143.24000000  * -48.98800000  *
  1036       C         61.00200000  *  142.26000000  * -49.77100000  *
  1037       H         60.24600000  *  142.42800000  * -50.53400000  *
  1038       H         61.44700000  *  141.27100000  * -49.89000000  *
  1039       H         60.52000000  *  142.31900000  * -48.79800000  *
  1040       C         62.89500000  *  143.12600000  * -51.08400000  *
  1041       H         63.82900000  *  143.66800000  * -50.95600000  *
  1042       H         63.12900000  *  142.06900000  * -51.20900000  *
  1043       H         62.39300000  *  143.49200000  * -51.96600000  *
  1044       C         61.76300000  *  147.21800000  * -49.95200000  *
  1045       O         61.15000000  *  147.60200000  * -48.96600000  *
  1046       N         61.89400000  *  147.98800000  * -51.02500000  *
  1047       H         62.38600000  *  147.61900000  * -51.83400000  *
  1048       C         61.44800000  *  149.38100000  * -51.05300000  *
  1049       H         61.05400000  *  149.67400000  * -50.08100000  *
  1050       C         62.62700000  *  150.30000000  * -51.36400000  *
  1051       H         62.96500000  *  150.10500000  * -52.38200000  *
  1052       H         62.26400000  *  151.32400000  * -51.30300000  *
  1053       C         63.82100000  *  150.13800000  * -50.41500000  *
  1054       H         64.25300000  *  149.14600000  * -50.52900000  *
  1055       C         64.85600000  *  151.17700000  * -50.79600000  *
  1056       H         64.46800000  *  152.16500000  * -50.56200000  *
  1057       H         65.77300000  *  150.98700000  * -50.24400000  *
  1058       H         65.06900000  *  151.14200000  * -51.85800000  *
  1059       C         63.47900000  *  150.36100000  * -48.94400000  *
  1060       H         62.84400000  *  149.55200000  * -48.59600000  *
  1061       H         64.39000000  *  150.35200000  * -48.34800000  *
  1062       H         62.96200000  *  151.31200000  * -48.81400000  *
  1063       C         60.32800000  *  149.56900000  * -52.06200000  *
  1064       O         60.43100000  *  149.11100000  * -53.18800000  *
  1065       N         59.26800000  *  150.25600000  * -51.67700000  *
  1066       H         59.36500000  *  150.76300000  * -50.80000000  *
  1067       C         58.08300000  *  150.44700000  * -52.50800000  *
  1068       H         58.17300000  *  149.92400000  * -53.45700000  *
  1069       C         56.81900000  *  149.90600000  * -51.78600000  *
  1070       H         55.94300000  *  150.08700000  * -52.41500000  *
  1071       C         56.95000000  *  148.40400000  * -51.54300000  *
  1072       H         57.75300000  *  148.18300000  * -50.83300000  *
  1073       H         56.01300000  *  148.00400000  * -51.15200000  *
  1074       H         57.15800000  *  147.91500000  * -52.48900000  *
  1075       C         56.64700000  *  150.60600000  * -50.43300000  *
  1076       H         57.48200000  *  150.38000000  * -49.77500000  *
  1077       H         56.60500000  *  151.68300000  * -50.57600000  *
  1078       C         55.37000000  *  150.22200000  * -49.68600000  *
  1079       H         55.48900000  *  149.24800000  * -49.22200000  *
  1080       H         55.17000000  *  150.96500000  * -48.91000000  *
  1081       H         54.52900000  *  150.16800000  * -50.38500000  *
  1082       C         57.87200000  *  151.93000000  * -52.81700000  *
  1083       O         58.38200000  *  152.79400000  * -52.10000000  *
  1084       N         57.14900000  *  152.22000000  * -53.89700000  *
  1085       H         56.70500000  *  151.48200000  * -54.43300000  *
  1086       C         56.84100000  *  153.60200000  * -54.22700000  *
  1087       H         57.16800000  *  154.27800000  * -53.43100000  *
  1088       C         57.50400000  *  154.05300000  * -55.54100000  *
  1089       H         57.21800000  *  155.07000000  * -55.80500000  *
  1090       H         58.58200000  *  154.04400000  * -55.38800000  *
  1091       C         57.19300000  *  153.14600000  * -56.70100000  *
  1092       O         56.13500000  *  152.53500000  * -56.76400000  *
  1093       N         58.11500000  *  153.07200000  * -57.64100000  *
  1094       H         57.83300000  *  152.61700000  * -58.48600000  *
  1095       H         58.88600000  *  153.71500000  * -57.62100000  *
  1096       C         55.33100000  *  153.75800000  * -54.32100000  *
  1097       O         54.57600000  *  152.79900000  * -54.11400000  *
  1098       N         54.88500000  *  154.97100000  * -54.62100000  *
  1099       H         55.52100000  *  155.73600000  * -54.79200000  *
  1100       C         53.46400000  *  155.24700000  * -54.72300000  *
  1101       H         52.92700000  *  154.82600000  * -53.87200000  *
  1102       C         53.20900000  *  156.78000000  * -54.75500000  *
  1103       H         52.16900000  *  156.98000000  * -55.02600000  *
  1104       C         53.47800000  *  157.39700000  * -53.41000000  *
  1105       H         54.52100000  *  157.25500000  * -53.13000000  *
[...]
 1005  H   0.85403
 1006  C   1.06735   0.81291   0.74991   0.79839
 1007  O   1.88306   1.36282   1.53779   1.79862
 1008  N   1.52751   1.34828   1.42923   1.32720
 1009  H   0.66587
 1010  H   0.69203
 1011  C   1.08422   0.76946   0.79270   0.81832
 1012  O   1.88977   1.61928   1.28219   1.71338
 1013  N   1.55306   1.52388   1.20354   1.30434
 1014  H   0.67237
 1015  C   1.07146   0.94260   1.09427   0.81885
 1016  H   0.80109
 1017  C   1.06978   1.05294   1.09147   1.15951
 1018  H   0.83602
 1019  H   0.80563
 1020  C   1.06227   0.81339   0.78016   0.77060
 1021  O   1.88223   1.74699   1.36664   1.59222
 1022  N   1.53350   1.31883   1.19553   1.59899
 1023  H   0.66987
 1024  H   0.65757
 1025  C   1.09085   0.78518   0.71229   0.85319
 1026  O   1.87723   1.77229   1.62440   1.38929
 1027  N   1.54114   1.12621   1.65956   1.18430
 1028  H   0.64993
 1029  C   1.06940   0.96902   0.98280   0.97390
 1030  H   0.81482
 1031  C   1.06727   1.06537   0.99391   1.17585
 1032  H   0.83263
 1033  H   0.84891
 1034  C   1.04097   1.01080   0.95029   1.05993
 1035  H   0.85407
 1036  C   1.04883   1.12523   1.11269   1.17381
 1037  H   0.84841
 1038  H   0.85716
 1039  H   0.86069
 1040  C   1.05134   1.14397   1.16480   1.10174
 1041  H   0.84357
 1042  H   0.86443
 1043  H   0.85147
 1044  C   1.07624   0.75393   0.84275   0.75917
 1045  O   1.87362   1.52655   1.79211   1.43800
 1046  N   1.54595   1.56108   1.17170   1.24834
 1047  H   0.64954
 1048  C   1.06605   0.98727   0.82389   1.10281
 1049  H   0.80946
 1050  C   1.06444   1.02426   1.10669   1.12139
 1051  H   0.85237
 1052  H   0.83997
 1053  C   1.04843   0.96560   1.06464   0.97929
 1054  H   0.86931
 1055  C   1.05369   1.12212   1.13569   1.15815
 1056  H   0.84403
 1057  H   0.85803
 1058  H   0.86531
 1059  C   1.05518   1.18128   1.18234   1.03358
 1060  H   0.83644
 1061  H   0.84787
 1062  H   0.84465
 1063  C   1.07639   0.79868   0.74289   0.81563
 1064  O   1.86837   1.83449   1.63042   1.34680
 1065  N   1.54162   1.18764   1.46812   1.29569
 1066  H   0.64239
 1067  C   1.07622   0.89251   1.00380   1.03987
 1068  H   0.81450
 1069  C   1.06491   1.01307   0.99086   1.02307
 1070  H   0.84058
 1071  C   1.05435   1.18029   1.03665   1.17293
 1072  H   0.84441
 1073  H   0.84614
 1074  H   0.85597
 1075  C   1.05407   1.07399   1.11959   1.02959
 1076  H   0.84538
 1077  H   0.86125
 1078  C   1.05237   1.08497   1.15995   1.13111
 1079  H   0.84628
 1080  H   0.87632
 1081  H   0.84771
 1082  C   1.08715   0.74162   0.88932   0.74210
 1083  O   1.88712   1.56850   1.57655   1.55276
 1084  N   1.54361   1.50781   1.14266   1.34144
 1085  H   0.63896
 1086  C   1.06117   0.99416   0.88777   1.01557
 1087  H   0.80442
 1088  C   1.07105   1.17442   1.11282   1.04363
 1089  H   0.83066
 1090  H   0.81787
 1091  C   1.06773   0.77849   0.79269   0.82244
 1092  O   1.88779   1.30669   1.50549   1.80296
 1093  N   1.53696   1.31225   1.52207   1.27976
 1094  H   0.69264
 1095  H   0.69563
 1096  C   1.08069   0.88474   0.77744   0.75088
 1097  O   1.89440   1.62452   1.43484   1.52673
 1098  N   1.54111   1.14488   1.19514   1.69363
 1099  H   0.67720
 1100  C   1.08535   0.83338   1.04061   1.09578
 1101  H   0.80887
 1102  C   1.08452   0.98660   0.88317   0.88914
 1103  H   0.85790
 1104  C   1.05307   1.18563   1.17289   1.05408
 1105  H   0.83927
 1106  H   0.83167
 1107  H   0.83350
 1108  O   1.85137   1.58125   1.82079   1.32288
 1109  H   0.67536
 1110  C   1.07466   0.81032   0.77003   0.81929
 1111  O   1.88599   1.23147   1.61607   1.81380
 1112  N   1.53435   1.18208   1.58168   1.22146
 1113  H   0.69153
 1114  C   1.05384   1.13282   1.13996   0.88752
 1115  H   0.84101
 1116  H   0.87158
 1117  H   0.83529
 1118  H   0.86754
 1119  C   1.10022   0.76472   0.75343   0.92063
 1120  O   1.88718   1.66995   1.57177   1.45699
 1121  N   1.54652   1.44420   1.35136   1.20807
 1122  H   0.67408
 1123  C   1.08021   0.92981   1.08542   0.92419
 1124  H   0.81068
 1125  C   1.07315   1.07892   0.95454   0.98273
 1126  H   0.84443
 1127  C   1.05753   1.18822   1.08020   1.12361
 1128  H   0.83764
 1129  H   0.85385
 1130  H   0.85834
 1131  C   1.05397   1.07461   1.13462   1.01848
 1132  H   0.85574
 1133  H   0.85353
 1134  C   1.04893   1.14433   1.14772   1.09028
 1135  H   0.85570
 1136  H   0.85930
 1137  H   0.84925
 1138  C   1.07503   0.84240   0.74935   0.79247
 1139  O   1.88230   1.88183   1.48200   1.36267
 1140  N   1.54632   1.09843   1.54193   1.34220
 1141  H   0.63233
 1142  C   1.06856   0.84957   1.04271   1.03919
 1143  H   0.81378
 1144  C   1.05976   1.08869   1.05681   1.09000
 1145  H   0.83204
 1146  H   0.84605
 1147  C   1.05091   1.08874   1.03290   1.08354
 1148  H   0.85883
 1149  H   0.83987
 1150  C   1.06116   1.07595   1.05775   1.09656
 1151  H   0.82491
 1152  H   0.82578
 1153  C   1.08154   1.03058   0.99350   1.07585
 1154  H   0.83590
 1155  H   0.82750
 1156  N   1.46380   1.23164   1.24314   1.25602
 1157  H   0.66617
 1158  H   0.69437
 1159  H   0.73033
 1160  C   1.07950   0.77852   0.75114   0.82872
 1161  O   1.88202   1.76757   1.68867   1.28783
 1162  N   1.54482   1.33055   1.42918   1.22902
 1163  H   0.64220
 1164  C   1.06976   0.91851   0.95602   1.02964
 1165  H   0.83147
 1166  C   1.06260   1.09800   1.02034   1.13380
 1167  H   0.83428
 1168  H   0.84795
 1169  C   1.05389   1.07587   0.96032   0.95833
 1170  H   0.85443
 1171  C   1.06150   1.15497   1.13912   1.09664
 1172  H   0.86236
 1173  H   0.85287
 1174  H   0.84792
 1175  C   1.05712   1.17432   1.13646   1.09486
 1176  H   0.85061
 1177  H   0.85406
 1178  H   0.86033
 1179  C   1.08550   0.79214   0.80099   0.75907
 1180  O   1.88116   1.63242   1.59756   1.53813
 1181  N   1.54320   1.36408   1.43855   1.16243
 1182  H   0.64149
 1183  C   1.06658   0.91291   0.93075   1.04873
 1184  H   0.83104
 1185  C   1.05897   1.16189   1.07723   1.16090
 1186  H   0.81462
 1187  H   0.85349
 1188  H   0.82114
 1189  C   1.08938   0.78329   0.78944   0.74547
 1190  O   1.87304   1.83482   1.35683   1.58714
 1191  N   1.54702   1.18151   1.32181   1.49752
 1192  H   0.68689
 1193  C   1.07518   0.88151   1.07314   0.93550
 1194  H   0.83207
 1195  C   1.07852   1.15121   1.17971   1.00180
 1196  H   0.80053
 1197  H   0.83156
 1198  C   1.06928   0.73095   0.73491   0.69120
 1199  O   1.88698   1.67787   1.47467   1.68701
 1200  O   1.86965   1.79800   1.44768   1.76236
 1201  C   1.08904   0.81966   0.79652   0.74740
 1202  O   1.88752   1.28302   1.80178   1.57045
 1203  N   1.56630   1.29172   1.16996   1.53865
 1204  H   0.68076
 1205  C   1.07968   1.01750   0.91681   0.95411
 1206  H   0.84160
 1207  C   1.05588   1.08044   1.20360   0.95972
 1208  H   0.81495
 1209  H   0.81700
 1210  C   1.07368   0.97077   0.97753   0.97063
 1211  C   1.08857   1.03609   1.04188   1.01347
 1212  H   0.84221
 1213  C   1.08465   0.99238   1.05624   1.01747
 1214  H   0.85938
 1215  C   1.08692   1.05797   0.99227   1.02844
 1216  H   0.84955
 1217  C   1.08966   1.03686   1.03375   0.98364
 1218  H   0.83050
 1219  C   1.08699   0.98557   1.05958   1.02009
 1220  H   0.84262
 1221  C   1.09043   0.80369   0.77399   0.76228
 1222  O   1.88495   1.44627   1.56367   1.71410
 1223  N   1.53952   1.41496   1.43559   1.13570
 1224  H   0.67995
 1225  C   1.06874   0.98425   1.07082   0.98551
 1226  H   0.81189
 1227  H   0.80400
 1228  C   1.07979   0.82919   0.77474   0.70261
 1229  O   1.87532   1.84489   1.33264   1.62680
 1230  N   1.55627   1.29231   1.23430   1.44040
 1231  H   0.66880
 1232  C   1.07730   0.89950   1.03798   0.96091
 1233  H   0.84840
 1234  C   1.06846   1.11138   0.94604   1.18136
 1235  H   0.82811
 1236  H   0.83406
 1237  C   1.05189   1.03177   0.96371   1.00814
 1238  H   0.86259
 1239  C   1.05595   1.16859   1.06350   1.16618
 1240  H   0.85601
 1241  H   0.84411
 1242  H   0.85376
 1243  C   1.05577   1.17217   1.18835   1.04719
 1244  H   0.84508
 1245  H   0.83725
 1246  H   0.85981
 1247  C   1.09711   0.86609   0.76808   0.73944
 1248  O   1.88377   1.31153   1.77494   1.56754
 1249  N   1.58482   1.28114   1.24153   1.53013
 1250  H   0.66454
 1251  C   1.06942   0.95960   0.98988   0.96213
 1252  H   0.82515
 1253  C   1.05734   1.14342   1.09972   1.16267
 1254  H   0.86480
 1255  H   0.82103
 1256  H   0.81215
 1257  C   1.07877   0.84929   0.76918   0.78349
 1258  O   1.89119   1.45720   1.52832   1.62175
 1259  N   1.54611   1.31338   1.54420   1.15320
 1260  H   0.70121
 1261  C   1.06026   0.93097   1.14799   1.09013
 1262  H   0.81723
 1263  H   0.85563
 1264  H   0.84418
 1265  H   0.88517
 1266  C   1.09724   0.75875   0.82380   0.86999
 1267  O   1.89048   1.46985   1.31222   1.86345
 1268  N   1.54394   1.50184   1.35456   1.15117
 1269  H   0.69044
 1270  C   1.07223   1.10774   0.96291   0.82225
 1271  H   0.80424
 1272  C   1.05800   1.09653   1.03314   1.13996
 1273  H   0.84057
 1274  H   0.83440
 1275  C   1.06455   0.97604   0.94777   0.96740
 1276  C   1.08135   1.01346   0.99080   1.05587
 1277  H   0.84807
 1278  C   1.08027   1.03482   1.02493   0.99565
 1279  H   0.85615
 1280  C   1.07821   1.00849   1.05278   1.02422
 1281  H   0.86163
 1282  C   1.07774   1.02509   1.00528   1.05004
 1283  H   0.86375
 1284  C   1.08047   1.06033   1.02591   0.99980
 1285  H   0.84781
 1286  C   1.08373   0.77232   0.80325   0.81742
 1287  O   1.89080   1.50327   1.62951   1.48192
 1288  N   1.53992   1.18282   1.36157   1.44861
 1289  H   0.67888
 1290  C   1.05562   1.13010   0.97878   0.99582
 1291  H   0.83567
 1292  H   0.79602
 1293  C   1.07767   0.78692   0.75906   0.80404
 1294  O   1.87322   1.54278   1.38724   1.83533
 1295  N   1.53531   1.40906   1.37201   1.18510
 1296  H   0.67053
 1297  C   1.07394   1.00538   1.18570   0.89162
 1298  H   0.81573
 1299  H   0.81530
 1300  C   1.07887   0.79691   0.76152   0.81360
 1301  O   1.89012   1.46384   1.49143   1.68862
 1302  N   1.56543   1.46196   1.16896   1.27049
 1303  C   1.06824   1.06581   0.87145   1.05082
 1304  H   0.84455
 1305  H   0.84938
 1306  C   1.05755   1.03548   1.14287   1.06225
 1307  H   0.83942
 1308  H   0.79900
 1309  C   1.05942   1.09371   0.99329   1.15172
 1310  H   0.85795
 1311  H   0.83282
 1312  C   1.07057   1.04405   0.98701   0.88029
 1313  H   0.83384
 1314  C   1.09127   0.79085   0.79436   0.82252
 1315  O   1.89223   1.35951   1.36164   1.85868
 1316  N   1.54613   1.41376   1.50935   1.12654
 1317  H   0.68435
 1318  C   1.07857   1.04426   1.12150   0.88181
 1319  H   0.80288
 1320  H   0.82126
 1321  C   1.08609   0.82894   0.73292   0.78192
 1322  O   1.88599   1.69523   1.71571   1.32132
 1323  N   1.55274   1.23490   1.41497   1.34516
 1324  H   0.68883
 1325  C   1.07640   0.85834   1.06000   0.98292
 1326  H   0.82266
 1327  C   1.05904   1.17688   1.07709   0.96473
 1328  H   0.84744
 1329  H   0.82260
 1330  C   1.05757   1.11775   1.05720   1.05052
 1331  H   0.83354
 1332  H   0.87477
 1333  C   1.06933   1.10898   1.11921   0.74610
 1334  H   0.83607
 1335  H   0.80748
 1336  N   1.53394   1.59283   1.27309   1.10593
 1337  H   0.67028
 1338  C   0.97633   0.84037   0.80647   0.79178
 1339  N   1.49890   1.55659   1.25219   1.24769
 1340  H   0.64595
 1341  H   0.65733
 1342  N   1.50166   1.59043   1.35403   1.14266
 1343  H   0.66378
 1344  H   0.65934
 1345  C   1.08038   0.77722   0.78188   0.84595
 1346  O   1.89144   1.44933   1.63078   1.54529
 1347  N   1.54299   1.55324   1.19460   1.24212
 1348  H   0.68946
 1349  C   1.09107   1.00826   1.01060   0.91146
 1350  H   0.80232
 1351  C   1.08442   0.92290   0.92578   0.88684
 1352  H   0.85194
 1353  C   1.05835   1.10827   1.12677   1.19991
 1354  H   0.82508
 1355  H   0.82853
 1356  H   0.84190
 1357  O   1.84274   1.59292   1.64064   1.56084
 1358  H   0.61065
 1359  C   1.07934   0.81635   0.79807   0.77184
 1360  O   1.88890   1.52535   1.78968   1.35975
 1361  N   1.55417   1.33131   1.29538   1.37692
 1362  H   0.64973
 1363  C   1.07371   0.97521   0.92492   1.00630
 1364  H   0.83131
 1365  C   1.05690   1.09306   1.06702   1.08489
 1366  H   0.85164
 1367  H   0.83308
 1368  C   1.05795   0.97067   0.97379   1.08182
 1369  C   1.08223   0.97485   1.07603   0.99699
 1370  H   0.85080
 1371  C   1.08594   1.08225   0.99883   0.99898
 1372  H   0.80211
 1373  C   1.06927   0.83465   0.89446   0.86707
 1374  O   1.84129   1.46076   1.54201   1.69757
 1375  H   0.60002
 1376  C   1.07125   0.99552   1.09222   1.08512
 1377  H   0.85519
 1378  C   1.07723   1.05311   1.00379   1.02237
 1379  H   0.87695
 1380  C   1.08219   0.79266   0.75802   0.82372
 1381  O   1.88960   1.35956   1.51328   1.81054
 1382  N   1.55308   1.20487   1.61400   1.14973
 1383  H   0.65935
 1384  C   1.08595   1.09382   1.05504   0.83731
 1385  H   0.85017
 1386  C   1.08030   0.85418   0.86942   1.00702
 1387  H   0.87832
 1388  C   1.05614   1.09513   1.13659   1.19012
 1389  H   0.83132
 1390  H   0.85599
 1391  H   0.85297
 1392  O   1.84999   1.30791   1.76138   1.64698
 1393  H   0.59965
 1394  C   1.08861   0.86119   0.77050   0.80782
 1395  O   1.89633   1.23790   1.65283   1.60088
 1396  N   1.54733   1.20483   1.30480   1.51977
 1397  H   0.69381
 1398  C   1.06718   1.01862   1.01462   1.05309
 1399  H   0.88133
 1400  H   0.84528
 1401  C   1.06971   0.85181   0.75604   0.78777
 1402  O   1.89313   1.66813   1.37991   1.51115
 1403  N   1.55715   1.14822   1.53528   1.33776
 1404  H   0.68908
 1405  C   1.07215   0.82311   0.97438   1.14136
 1406  H   0.83293
 1407  C   1.05674   1.16609   1.00944   1.02639
 1408  H   0.84781
 1409  H   0.83036
 1410  C   1.06034   1.20376   0.98300   1.16438
 1411  H   0.83520
 1412  H   0.83561
 1413  C   1.06218   0.74014   0.72286   0.73435
 1414  O   1.89253   1.42948   1.79797   1.60774
 1415  O   1.88383   1.53432   1.58013   1.81713
 1416  C   1.09487   0.76516   0.86736   0.74688
 1417  O   1.88699   1.65384   1.65716   1.40295
 1418  N   1.54803   1.31574   1.19225   1.48981
 1419  H   0.67121
 1420  C   1.07024   1.04640   0.86930   1.02922
 1421  H   0.87166
 1422  C   1.05523   1.03134   1.04099   0.95586
 1423  H   0.82492
 1424  C   1.05491   1.16607   1.03673   1.20499
 1425  H   0.86107
 1426  H   0.84213
 1427  H   0.82106
 1428  C   1.05352   1.16787   1.15504   1.07913
 1429  H   0.85337
 1430  H   0.84002
 1431  H   0.87279
 1432  C   1.07378   0.79243   0.74884   0.84328
 1433  O   1.88972   1.32226   1.58703   1.74391
 1434  N   1.53879   1.27321   1.49311   1.21304
 1435  H   0.68160
 1436  C   1.07440   1.00924   1.04586   0.86610
 1437  H   0.84287
 1438  C   1.06135   1.03032   1.01678   0.97984
 1439  H   0.83863
 1440  C   1.05312   1.18239   1.10071   1.10931
 1441  H   0.83371
 1442  H   0.84890
 1443  H   0.86529
 1444  C   1.05652   1.19177   1.16280   1.04365
 1445  H   0.86070
 1446  H   0.83717
 1447  H   0.83030
 1448  C   1.08290   0.80949   0.79865   0.76217
 1449  O   1.88747   1.79485   1.44268   1.43277
 1450  N   1.53613   1.24347   1.43827   1.31517
 1451  H   0.68504
 1452  C   1.07801   0.90322   0.96826   1.14043
 1453  H   0.81621
 1454  C   1.07868   0.93198   0.84236   0.98929
 1455  H   0.87350
 1456  C   1.05580   1.09990   1.13382   1.18161
 1457  H   0.84024
 1458  H   0.82855
 1459  H   0.84555
 1460  O   1.85208   1.45301   1.47053   1.77154
 1461  H   0.66541
 1462  C   1.07530   0.76591   0.82452   0.81389
 1463  O   1.88677   1.45227   1.86778   1.32186
 1464  N   1.53706   1.58468   1.12336   1.28794
 1465  H   0.68732
 1466  C   1.05224   1.16011   0.87615   1.13282
 1467  H   0.82180
 1468  H   0.85353
 1469  H   0.86638
 1470  H   0.86949
 1471  C   1.10170   0.76412   0.81173   0.89546
 1472  O   1.88719   1.42756   1.33471   1.87145
 1473  N   1.55040   1.52612   1.36327   1.14169
 1474  H   0.68722
 1475  C   1.07790   1.09048   1.02958   0.79369
 1476  H   0.81270
 1477  C   1.05937   1.13168   1.00684   1.09919
 1478  H   0.81550
 1479  H   0.82654
 1480  C   1.06836   0.97629   0.98732   0.99789
 1481  C   1.08107   0.99049   1.01959   1.00401
 1482  H   0.84551
 1483  C   1.07574   1.10240   1.04750   1.06485
 1484  H   0.82527
 1485  C   1.07249   0.88873   0.88826   0.88311
 1486  O   1.84177   1.33086   1.60081   1.72834
 1487  H   0.65407
 1488  C   1.07529   0.98852   1.10183   1.09830
 1489  H   0.83443
 1490  C   1.08718   1.07425   0.98135   0.97207
 1491  H   0.84068
 1492  C   1.08199   0.80330   0.78091   0.81051
 1493  O   1.89298   1.77879   1.64268   1.23668
 1494  N   1.53511   1.26483   1.54064   1.17726
 1495  H   0.69016
 1496  C   1.05806   0.92147   1.08517   1.15574
 1497  H   0.83216
 1498  H   0.85586
 1499  H   0.85020
 1500  H   0.86589
 1501  C   1.10298   0.82979   0.87807   0.75940
 1502  O   1.89043   1.34351   1.83483   1.42342
 1503  N   1.55422   1.37694   1.20568   1.47149
 1504  H   0.69153
 1505  C   1.07913   0.97652   0.84383   1.12473
 1506  H   0.81510
 1507  C   1.05898   0.98046   1.00850   1.06737
 1508  H   0.86932
 1509  C   1.05192   1.15807   1.05412   1.18180
 1510  H   0.83704
 1511  H   0.85324
 1512  H   0.83587
 1513  C   1.04805   1.00400   1.12233   1.09027
 1514  H   0.86267
 1515  H   0.86405
 1516  C   1.04890   1.11934   1.13510   1.13907
 1517  H   0.85399
 1518  H   0.85514
 1519  H   0.85421
 1520  C   1.07241   0.86792   0.76272   0.76283
 1521  O   1.88564   1.53000   1.48961   1.60566
 1522  N   1.54256   1.16439   1.44797   1.40498
 1523  H   0.70092
 1524  C   1.06816   0.88838   1.14588   1.09860
 1525  H   0.85022
 1526  H   0.86146
 1527  H   0.82829
 1528  H   0.86134
 1529  C   1.10312   0.85216   0.75653   0.84820
 1530  O   1.89239   1.78033   1.57474   1.31069
 1531  N   1.53868   1.27054   1.41796   1.30156
 1532  H   0.68186
 1533  C   1.05772   0.88010   1.04658   1.01929
 1534  H   0.82201
 1535  C   1.06045   1.03580   1.11727   1.10580
 1536  H   0.84097
 1537  H   0.84465
 1538  C   1.04473   0.99076   0.96532   1.06022
 1539  H   0.87911
 1540  C   1.05427   1.16056   1.06591   1.18104
 1541  H   0.84387
 1542  H   0.84599
 1543  H   0.85113
 1544  C   1.05255   1.12479   1.16988   1.10979
 1545  H   0.85978
 1546  H   0.84656
 1547  H   0.84034
 1548  C   1.08027   0.74509   0.87791   0.77732
 1549  O   1.88743   1.52368   1.42207   1.71257
 1550  N   1.54038   1.59666   1.20236   1.20263
 1551  H   0.67698
 1552  C   1.06910   1.04497   0.93963   0.93107
 1553  H   0.81860
 1554  C   1.05607   1.16714   1.05692   1.01565
 1555  H   0.83467
 1556  H   0.83400
 1557  C   1.05729   1.12796   1.10602   1.02227
 1558  H   0.84103
 1559  H   0.82397
 1560  C   1.06744   1.16649   0.93356   0.90778
 1561  H   0.81888
 1562  H   0.84022
 1563  N   1.52345   1.14356   1.42236   1.39734
 1564  H   0.66661
 1565  C   0.99030   0.79732   0.80770   0.81379
 1566  N   1.51454   1.10708   1.46262   1.48451
 1567  H   0.64542
 1568  H   0.65999
 1569  N   1.50480   1.23326   1.41596   1.42868
 1570  H   0.65955
 1571  H   0.65738
 1572  C   1.07525   0.86263   0.78979   0.77471
 1573  O   1.88855   1.59582   1.59670   1.52622
 1574  N   1.53734   1.18977   1.25218   1.49125
 1575  H   0.67730
 1576  C   1.08138   0.82418   1.13557   1.04248
 1577  H   0.82612
 1578  C   1.05990   1.15924   1.08174   0.99873
 1579  H   0.84388
 1580  H   0.84829
 1581  C   1.04873   1.08005   0.97200   0.94670
 1582  H   0.87059
 1583  C   1.05527   1.15912   1.15752   1.09092
 1584  H   0.86772
 1585  H   0.86615
 1586  H   0.85361
 1587  C   1.05658   1.16184   1.09268   1.15425
 1588  H   0.84595
 1589  H   0.86914
 1590  H   0.84467
 1591  C   1.07457   0.75943   0.76296   0.73206
 1592  O   1.88873   1.43191   1.84372   1.57872
 1593  O   1.89199   1.52733   1.54865   1.77900

 **********************
 *                    *
 * JOB ENDED NORMALLY *
 *                    *
 **********************



 TOTAL JOB TIME:          2350.83 SECONDS

 == MOPAC DONE ==
