 *******************************************************************************
 **                                                                           **
 **                              MOPAC v23.2.2                                **
 **                                                                           **
 *******************************************************************************
 **          Digital Object Identifier (DOI): 10.5281/zenodo.6511958          **
 **    Visit the DOI location for information on how to cite this program.    **
 *******************************************************************************

                              PM7 CALCULATION RESULTS

 *******************************************************************************
 *  CALCULATION DONE: (MAX THREADS = 24)             Thu Jan 22 16:41:49 2026  *
 *  PM7        - The PM7 Hamiltonian to be used
 *
 *
 *
 *                 CHARGE ON SYSTEM = +2
 *
 *
 *
 *  EPS=1      - USE ANDREAS KLAMT'S COSMO IMPLICIT SOLVATION MODEL
 *  XYZ        - CARTESIAN COORDINATE SYSTEM TO BE USED
 *  1SCF       - DO 1 SCF AND THEN STOP 
 *  T=         - A TIME OF 172800.0 SECONDS REQUESTED
 *  DUMP=N     - RESTART FILE WRITTEN EVERY 7200.0 SECONDS REQUESTED
 *******************************************************************************
PM7 1SCF XYZ CHARGE=2 EPS=1


   ATOM   CHEMICAL          X               Y               Z
  NUMBER   SYMBOL      (ANGSTROMS)     (ANGSTROMS)     (ANGSTROMS)

     1       H         71.69100000  *  165.23700000  * -45.36000000  *
     2       C         70.72700000  *  165.64400000  * -45.02500000  *
     3       O         70.67100000  *  166.69300000  * -44.40000000  *
     4       N         69.64800000  *  164.94600000  * -45.35400000  *
     5       H         69.74300000  *  164.08600000  * -45.86500000  *
     6       C         68.31800000  *  165.37700000  * -44.95100000  *
     7       H         68.30400000  *  166.44500000  * -44.75000000  *
     8       C         67.27900000  *  165.08100000  * -46.05800000  *
     9       H         67.27200000  *  164.02200000  * -46.29800000  *
    10       C         65.89200000  *  165.46600000  * -45.59200000  *
    11       H         65.46400000  *  166.22900000  * -46.24500000  *
    12       H         65.23700000  *  164.60600000  * -45.62700000  *
    13       H         65.87600000  *  165.89500000  * -44.58400000  *
    14       C         67.63700000  *  165.85600000  * -47.31700000  *
    15       H         68.59400000  *  165.52900000  * -47.70800000  *
    16       H         66.87900000  *  165.66900000  * -48.07700000  *
    17       H         67.68800000  *  166.92100000  * -47.10100000  *
    18       C         67.91500000  *  164.66400000  * -43.65700000  *
    19       O         67.55300000  *  165.30600000  * -42.67600000  *
    20       N         67.98400000  *  163.33800000  * -43.65800000  *
    21       H         68.28400000  *  162.85200000  * -44.48600000  *
    22       C         67.62300000  *  162.54400000  * -42.48700000  *
    23       H         67.90600000  *  163.07600000  * -41.58100000  *
    24       C         66.12800000  *  162.23500000  * -42.45900000  *
    25       H         65.92600000  *  161.47400000  * -43.20900000  *
    26       H         65.88500000  *  161.80700000  * -41.48800000  *
    27       C         65.21300000  *  163.39800000  * -42.74000000  *
    28       H         65.33100000  *  164.15700000  * -41.96400000  *
    29       H         65.45900000  *  163.81400000  * -43.69700000  *
    30       C         63.76600000  *  162.97200000  * -42.82400000  *
    31       O         63.44700000  *  162.11400000  * -43.67900000  *
    32       O         62.94800000  *  163.49400000  * -42.03400000  *
    33       C         68.34700000  *  161.22200000  * -42.57700000  *
    34       O         68.73000000  *  160.78800000  * -43.66100000  *
    35       N         68.52400000  *  160.57500000  * -41.43500000  *
    36       H         68.03000000  *  160.89100000  * -40.60600000  *
    37       C         69.17300000  *  159.28200000  * -41.42100000  *
    38       H         69.95100000  *  159.22100000  * -42.17800000  *
    39       C         69.75600000  *  159.01000000  * -40.03200000  *
    40       H         70.21900000  *  159.94300000  * -39.71800000  *
    41       H         68.96300000  *  158.79100000  * -39.31600000  *
    42       C         70.79800000  *  157.89600000  * -39.98300000  *
    43       H         70.31100000  *  156.94100000  * -40.17400000  *
    44       H         71.53800000  *  158.07300000  * -40.76900000  *
    45       C         71.50100000  *  157.83200000  * -38.61800000  *
    46       H         70.74900000  *  157.59000000  * -37.86000000  *
    47       H         72.23100000  *  157.01800000  * -38.63800000  *
    48       C         72.18600000  *  159.16200000  * -38.26900000  *
    49       H         72.83200000  *  159.42500000  * -39.10900000  *
    50       H         71.41200000  *  159.93100000  * -38.15600000  *
    51       N         73.00000000  *  159.10500000  * -37.02500000  *
    52       H         73.70000000  *  158.37000000  * -37.07400000  *
    53       H         73.43800000  *  159.98800000  * -36.79300000  *
    54       H         72.39100000  *  158.85400000  * -36.25100000  *
    55       C         68.06200000  *  158.28700000  * -41.74800000  *
    56       O         67.16300000  *  158.08100000  * -40.94600000  *
    57       N         68.05900000  *  157.72900000  * -42.96400000  *
    58       H         68.87000000  *  157.88900000  * -43.54100000  *
    59       C         67.06600000  *  156.73600000  * -43.42800000  *
    60       H         66.08600000  *  157.21500000  * -43.46100000  *
    61       C         67.41100000  *  156.23300000  * -44.85300000  *
    62       H         68.49400000  *  156.22000000  * -44.96000000  *
    63       C         66.90300000  *  154.81800000  * -45.17100000  *
    64       H         65.81600000  *  154.78000000  * -45.10200000  *
    65       H         67.21600000  *  154.54900000  * -46.17200000  *
    66       H         67.34000000  *  154.07500000  * -44.50400000  *
    67       C         66.83600000  *  157.22600000  * -45.87500000  *
    68       H         65.74700000  *  157.16500000  * -45.87300000  *
    69       H         67.11100000  *  158.22100000  * -45.54400000  *
    70       C         67.33900000  *  157.03400000  * -47.31300000  *
    71       H         66.93500000  *  156.12000000  * -47.74200000  *
    72       H         67.01200000  *  157.87200000  * -47.92600000  *
    73       H         68.42500000  *  156.99000000  * -47.32900000  *
    74       C         66.94200000  *  155.58100000  * -42.43800000  *
    75       O         65.83500000  *  155.20000000  * -42.05100000  *
    76       N         68.08100000  *  155.01800000  * -42.04000000  *
    77       H         68.96400000  *  155.38000000  * -42.38300000  *
    78       C         68.10800000  *  153.86200000  * -41.16400000  *
    79       H         67.64500000  *  154.12800000  * -40.21300000  *
    80       H         67.53500000  *  153.05300000  * -41.61800000  *
    81       C         69.51000000  *  153.34900000  * -40.88500000  *
    82       O         70.51300000  *  153.78700000  * -41.45600000  *
    83       N         69.54400000  *  152.38800000  * -39.97600000  *
    84       H         68.66400000  *  152.06500000  * -39.59800000  *
    85       C         70.75500000  *  151.80100000  * -39.42700000  *
    86       H         71.59800000  *  152.46200000  * -39.62600000  *
    87       C         70.57700000  *  151.68800000  * -37.90400000  *
    88       H         69.71800000  *  151.05300000  * -37.68100000  *
    89       H         71.47200000  *  151.24100000  * -37.49200000  *
    90       C         70.39200000  *  153.06500000  * -37.23900000  *
    91       H         71.24200000  *  153.69600000  * -37.50800000  *
    92       H         69.48900000  *  153.54400000  * -37.62500000  *
    93       C         70.27700000  *  152.96600000  * -35.70900000  *
    94       O         69.40200000  *  152.22700000  * -35.20200000  *
    95       O         71.03200000  *  153.67000000  * -35.00100000  *
    96       C         71.00800000  *  150.46400000  * -40.14000000  *
    97       O         70.31100000  *  149.47400000  * -39.90500000  *
    98       N         71.90900000  *  150.48500000  * -41.12800000  *
    99       H         72.50400000  *  151.29700000  * -41.23100000  *
   100       C         71.96200000  *  149.48300000  * -42.19700000  *
   101       H         70.94600000  *  149.18200000  * -42.45600000  *
   102       H         72.39800000  *  149.95600000  * -43.07600000  *
   103       C         72.76700000  *  148.21700000  * -41.89200000  *
   104       O         73.24200000  *  147.98300000  * -40.78300000  *
   105       N         72.94900000  *  147.39700000  * -42.92800000  *
   106       H         72.49200000  *  147.62100000  * -43.80200000  *
   107       C         73.76000000  *  146.16200000  * -42.92700000  *
   108       H         73.50100000  *  145.56400000  * -42.05300000  *
   109       C         73.45900000  *  145.33400000  * -44.18700000  *
   110       H         74.23200000  *  144.57900000  * -44.33400000  *
   111       C         72.11300000  *  144.63400000  * -44.06100000  *
   112       H         71.31200000  *  145.36800000  * -43.96500000  *
   113       H         71.94400000  *  144.01800000  * -44.94300000  *
   114       H         72.14000000  *  143.98200000  * -43.18800000  *
   115       O         73.41700000  *  146.18900000  * -45.30600000  *
   116       H         73.04200000  *  145.67600000  * -46.05900000  *
   117       C         75.26900000  *  146.39600000  * -42.87300000  *
   118       O         75.96300000  *  145.59500000  * -42.25600000  *
   119       N         75.76500000  *  147.47800000  * -43.48900000  *
   120       H         75.10300000  *  148.02700000  * -44.01300000  *
   121       C         77.20300000  *  147.75000000  * -43.70300000  *
   122       H         77.79000000  *  147.10800000  * -43.04400000  *
   123       C         77.56400000  *  147.40000000  * -45.15900000  *
   124       H         77.00500000  *  148.04800000  * -45.83400000  *
   125       H         78.62600000  *  147.59000000  * -45.32300000  *
   126       C         77.30900000  *  145.95400000  * -45.51400000  *
   127       C         78.00000000  *  144.96000000  * -44.80400000  *
   128       H         78.72400000  *  145.23200000  * -44.04600000  *
   129       C         77.72600000  *  143.61000000  * -45.04700000  *
   130       H         78.23800000  *  142.86900000  * -44.46000000  *
   131       C         76.78300000  *  143.23800000  * -46.02900000  *
   132       O         76.54600000  *  141.92500000  * -46.27700000  *
   133       H         77.23500000  *  141.38900000  * -45.84600000  *
   134       C         76.09700000  *  144.23600000  * -46.75300000  *
   135       H         75.35400000  *  143.95700000  * -47.48400000  *
   136       C         76.36200000  *  145.59400000  * -46.49300000  *
   137       H         75.81600000  *  146.35600000  * -47.03100000  *
   138       C         77.63900000  *  149.18800000  * -43.38100000  *
   139       O         78.75300000  *  149.58700000  * -43.72100000  *
   140       N         76.77600000  *  149.97800000  * -42.74300000  *
   141       H         75.89100000  *  149.59600000  * -42.44000000  *
   142       C         77.01000000  *  151.39200000  * -42.45700000  *
   143       H         77.58200000  *  151.49200000  * -41.53700000  *
   144       H         77.59600000  *  151.82400000  * -43.25900000  *
   145       C         75.70200000  *  152.16700000  * -42.31100000  *
   146       O         74.64800000  *  151.56700000  * -42.07800000  *
   147       N         75.75500000  *  153.49500000  * -42.44900000  *
   148       H         76.58800000  *  153.89400000  * -42.85900000  *
   149       C         74.59200000  *  154.32600000  * -42.21200000  *
   150       H         73.82600000  *  153.78000000  * -41.65800000  *
   151       C         74.95900000  *  155.54800000  * -41.37000000  *
   152       H         75.70700000  *  156.13900000  * -41.89300000  *
   153       C         73.73100000  *  156.40900000  * -41.13300000  *
   154       H         72.94300000  *  155.80300000  * -40.68200000  *
   155       H         73.98600000  *  157.21200000  * -40.45000000  *
   156       H         73.36800000  *  156.84900000  * -42.06500000  *
   157       C         75.54500000  *  155.09600000  * -40.05300000  *
   158       H         76.46000000  *  154.52800000  * -40.19800000  *
   159       H         75.77700000  *  155.95300000  * -39.42300000  *
   160       H         74.80500000  *  154.48400000  * -39.53200000  *
   161       C         74.01900000  *  154.79200000  * -43.53700000  *
   162       O         74.76100000  *  155.18400000  * -44.43700000  *
   163       N         72.69800000  *  154.65600000  * -43.66800000  *
   164       H         72.17000000  *  154.32700000  * -42.86700000  *
   165       C         71.91900000  *  155.10300000  * -44.82500000  *
   166       H         72.57600000  *  155.15800000  * -45.69100000  *
   167       C         70.76600000  *  154.13100000  * -45.15400000  *
   168       H         69.92800000  *  154.32500000  * -44.48400000  *
   169       C         70.29900000  *  154.35600000  * -46.59800000  *
   170       H         71.10600000  *  154.13000000  * -47.29500000  *
   171       H         69.45000000  *  153.70800000  * -46.81700000  *
   172       H         69.99300000  *  155.39000000  * -46.73900000  *
   173       C         71.13500000  *  152.65200000  * -44.98700000  *
   174       H         71.33900000  *  152.43100000  * -43.93900000  *
   175       H         70.29000000  *  152.03500000  * -45.29300000  *
   176       H         72.01000000  *  152.41100000  * -45.58700000  *
   177       C         71.36000000  *  156.49200000  * -44.53100000  *
   178       O         70.64400000  *  156.65100000  * -43.53800000  *
   179       N         71.62500000  *  157.49000000  * -45.37400000  *
   180       H         72.23900000  *  157.32200000  * -46.16900000  *
   181       C         71.01800000  *  158.79600000  * -45.21900000  *
   182       H         70.37900000  *  158.84300000  * -44.33800000  *
   183       C         72.10000000  *  159.86100000  * -45.06900000  *
   184       H         72.79900000  *  159.78100000  * -45.90500000  *
   185       H         71.63400000  *  160.84400000  * -45.14300000  *
   186       C         72.87100000  *  159.84300000  * -43.76800000  *
   187       C         72.34700000  *  160.43100000  * -42.61900000  *
   188       H         71.37700000  *  160.90600000  * -42.66800000  *
   189       C         73.06400000  *  160.45200000  * -41.42500000  *
   190       H         72.63300000  *  160.94600000  * -40.56800000  *
   191       C         74.33000000  *  159.87400000  * -41.37100000  *
   192       O         75.04700000  *  159.90100000  * -40.18700000  *
   193       H         74.69700000  *  160.54100000  * -39.56800000  *
   194       C         74.87500000  *  159.27800000  * -42.50300000  *
   195       H         75.78500000  *  158.71900000  * -42.41900000  *
   196       C         74.14000000  *  159.26700000  * -43.69600000  *
   197       H         74.51800000  *  158.73300000  * -44.56500000  *
   198       C         70.16700000  *  159.17400000  * -46.42900000  *
   199       O         70.41800000  *  158.72400000  * -47.55600000  *
   200       N         69.02700000  *  159.83000000  * -46.21300000  *
   201       H         68.83800000  *  160.13600000  * -45.26500000  *
   202       C         68.29500000  *  160.50900000  * -47.28300000  *
   203       H         68.28900000  *  159.90600000  * -48.19400000  *
   204       C         66.84800000  *  160.83600000  * -46.85800000  *
   205       H         66.32900000  *  159.91700000  * -46.60100000  *
   206       H         66.86100000  *  161.47700000  * -45.97500000  *
   207       C         66.04500000  *  161.52100000  * -47.97600000  *
   208       H         66.52200000  *  162.46200000  * -48.25200000  *
   209       H         66.02300000  *  160.86800000  * -48.85000000  *
   210       C         64.60700000  *  161.80500000  * -47.51200000  *
   211       H         64.14500000  *  160.87500000  * -47.17300000  *
   212       H         64.63600000  *  162.50600000  * -46.67700000  *
   213       C         63.77300000  *  162.39500000  * -48.65700000  *
   214       H         64.30400000  *  163.26200000  * -49.06600000  *
   215       H         63.69300000  *  161.64300000  * -49.45000000  *
   216       N         62.41700000  *  162.80600000  * -48.20400000  *
   217       H         62.46700000  *  163.52300000  * -47.49400000  *
   218       H         61.87400000  *  163.18500000  * -48.96900000  *
   219       H         61.90000000  *  162.02900000  * -47.81900000  *
   220       C         69.10400000  *  161.76400000  * -47.51000000  *
   221       O         69.33500000  *  162.49600000  * -46.55100000  *
   222       N         69.55500000  *  162.00600000  * -48.72500000  *
   223       H         69.34400000  *  161.34200000  * -49.46700000  *
   224       C         70.34900000  *  163.18200000  * -49.01700000  *
   225       H         70.22500000  *  163.93500000  * -48.24000000  *
   226       C         71.81400000  *  162.79200000  * -49.07000000  *
   227       H         71.97800000  *  162.06700000  * -49.86400000  *
   228       H         72.42900000  *  163.67700000  * -49.23900000  *
   229       H         72.10500000  *  162.33200000  * -48.12600000  *
   230       C         69.94400000  *  163.83800000  * -50.32200000  *
   231       O         69.22100000  *  163.25100000  * -51.12800000  *
   232       N         70.40700000  *  165.06400000  * -50.52400000  *
   233       H         70.93200000  *  165.53000000  * -49.79600000  *
   234       C         70.10800000  *  165.77900000  * -51.74600000  *
   235       H         69.54100000  *  165.15900000  * -52.44400000  *
   236       H         69.52200000  *  166.69100000  * -51.53000000  *
   237       H         71.05900000  *  166.04700000  * -52.23900000  *
   238       H         68.08600000  *  164.80700000  * -56.55000000  *
   239       C         68.21200000  *  164.39600000  * -55.53600000  *
   240       O         69.28600000  *  164.50800000  * -54.94200000  *
   241       N         67.13500000  *  163.82300000  * -55.01100000  *
   242       H         66.34000000  *  163.66800000  * -55.61500000  *
   243       C         67.13600000  *  163.21200000  * -53.68800000  *
   244       H         67.86300000  *  163.70700000  * -53.05000000  *
   245       C         65.75500000  *  163.32300000  * -53.02900000  *
   246       H         64.97700000  *  163.06900000  * -53.75000000  *
   247       C         65.64800000  *  162.36600000  * -51.85200000  *
   248       H         66.47200000  *  162.51800000  * -51.15200000  *
   249       H         64.69700000  *  162.53800000  * -51.34700000  *
   250       H         65.65200000  *  161.33900000  * -52.20000000  *
   251       C         65.54000000  *  164.75000000  * -52.56600000  *
   252       H         65.62600000  *  165.42400000  * -53.41600000  *
   253       H         64.53500000  *  164.85100000  * -52.15900000  *
   254       H         66.28400000  *  165.00300000  * -51.81000000  *
   255       C         67.52600000  *  161.76000000  * -53.84700000  *
   256       O         66.97900000  *  161.02800000  * -54.68200000  *
   257       N         68.49600000  *  161.34900000  * -53.04800000  *
   258       H         68.91100000  *  161.99700000  * -52.39100000  *
   259       C         69.01100000  *  159.99200000  * -53.10200000  *
   260       H         68.34600000  *  159.34100000  * -53.67900000  *
   261       C         70.37400000  *  159.97400000  * -53.81600000  *
   262       H         70.77500000  *  158.96500000  * -53.87500000  *
   263       C         70.21400000  *  160.50700000  * -55.21300000  *
   264       H         69.95700000  *  161.56600000  * -55.19000000  *
   265       H         71.15100000  *  160.39100000  * -55.75600000  *
   266       H         69.44200000  *  159.95000000  * -55.73600000  *
   267       C         71.37900000  *  160.85000000  * -53.05700000  *
   268       H         71.56500000  *  160.44500000  * -52.06400000  *
   269       H         72.31500000  *  160.84900000  * -53.61300000  *
   270       H         71.03600000  *  161.88400000  * -52.98400000  *
   271       C         69.19200000  *  159.37200000  * -51.72900000  *
   272       O         69.02000000  *  160.03600000  * -50.68600000  *
   273       N         69.38500000  *  158.05900000  * -51.70500000  *
   274       H         69.46700000  *  157.56800000  * -52.59100000  *
   275       C         69.75900000  *  157.32000000  * -50.51500000  *
   276       H         69.47500000  *  157.88000000  * -49.62600000  *
   277       C         69.00200000  *  155.99800000  * -50.48800000  *
   278       H         69.23700000  *  155.42700000  * -51.38400000  *
   279       H         69.28800000  *  155.42500000  * -49.60600000  *
   280       H         67.93200000  *  156.19900000  * -50.45200000  *
   281       C         71.27700000  *  157.14000000  * -50.53700000  *
   282       O         71.81300000  *  156.45900000  * -51.41800000  *
   283       N         71.97000000  *  157.79100000  * -49.60300000  *
   284       H         71.44500000  *  158.28300000  * -48.88900000  *
   285       C         73.41300000  *  157.73400000  * -49.53500000  *
   286       H         73.80300000  *  157.43200000  * -50.50200000  *
   287       C         73.96100000  *  159.11400000  * -49.18200000  *
   288       H         73.49200000  *  159.84000000  * -49.85100000  *
   289       H         73.62800000  *  159.35800000  * -48.16900000  *
   290       C         75.47300000  *  159.31600000  * -49.26600000  *
   291       H         75.96900000  *  158.63700000  * -48.57100000  *
   292       C         75.94900000  *  159.02000000  * -50.68400000  *
   293       H         75.44100000  *  159.71800000  * -51.34800000  *
   294       H         77.02400000  *  159.18800000  * -50.76300000  *
   295       H         75.74700000  *  157.98700000  * -50.96800000  *
   296       C         75.80400000  *  160.74000000  * -48.87900000  *
   297       H         75.43700000  *  160.94600000  * -47.87600000  *
   298       H         76.88200000  *  160.87900000  * -48.92200000  *
   299       H         75.32000000  *  161.42900000  * -49.57600000  *
   300       C         73.82100000  *  156.71600000  * -48.48500000  *
   301       O         73.39600000  *  156.78100000  * -47.33400000  *
   302       N         74.66100000  *  155.76500000  * -48.88300000  *
   303       H         74.90700000  *  155.74800000  * -49.87000000  *
   304       C         75.13100000  *  154.64400000  * -48.06100000  *
   305       H         74.60800000  *  154.63300000  * -47.10300000  *
   306       C         74.81700000  *  153.34800000  * -48.84200000  *
   307       H         74.24600000  *  153.59500000  * -49.74000000  *
   308       H         75.74000000  *  152.87800000  * -49.18000000  *
   309       C         73.99000000  *  152.30500000  * -48.08800000  *
   310       H         73.16200000  *  152.79400000  * -47.57400000  *
   311       H         73.56400000  *  151.64200000  * -48.84000000  *
   312       C         74.83100000  *  151.48600000  * -47.09300000  *
   313       H         75.82600000  *  151.31000000  * -47.50200000  *
   314       H         74.94800000  *  152.06400000  * -46.17200000  *
   315       C         74.17900000  *  150.12900000  * -46.76900000  *
   316       H         74.73000000  *  149.67500000  * -45.93900000  *
   317       H         73.15800000  *  150.31600000  * -46.41900000  *
   318       N         74.17300000  *  149.20700000  * -47.94600000  *
   319       H         75.10800000  *  148.95100000  * -48.24200000  *
   320       H         73.66700000  *  148.32900000  * -47.75800000  *
   321       H         73.69800000  *  149.61800000  * -48.74000000  *
   322       C         76.62500000  *  154.83100000  * -47.79300000  *
   323       O         77.42000000  *  154.64100000  * -48.70600000  *
   324       N         77.01700000  *  155.22600000  * -46.58100000  *
   325       H         76.29800000  *  155.26800000  * -45.86500000  *
   326       C         78.42200000  *  155.28900000  * -46.15900000  *
   327       H         79.06600000  *  155.59300000  * -46.98900000  *
   328       C         78.56700000  *  156.26000000  * -44.97900000  *
   329       H         78.02700000  *  155.87500000  * -44.10900000  *
   330       H         79.62500000  *  156.33900000  * -44.73000000  *
   331       C         78.01500000  *  157.64300000  * -45.34000000  *
   332       H         78.45100000  *  157.95800000  * -46.27300000  *
   333       H         76.93600000  *  157.57500000  * -45.50000000  *
   334       C         78.25100000  *  158.72500000  * -44.27900000  *
   335       H         77.97800000  *  159.68000000  * -44.73200000  *
   336       H         77.56000000  *  158.53300000  * -43.46900000  *
   337       C         79.67700000  *  158.85000000  * -43.70900000  *
   338       H         80.38400000  *  158.36300000  * -44.39700000  *
   339       H         79.95000000  *  159.91100000  * -43.68600000  *
   340       N         79.78800000  *  158.26900000  * -42.33500000  *
   341       H         79.63700000  *  157.26100000  * -42.37000000  *
   342       H         80.69600000  *  158.42600000  * -41.93200000  *
   343       H         79.10400000  *  158.64600000  * -41.70100000  *
   344       C         78.82300000  *  153.89100000  * -45.72900000  *
   345       O         78.09100000  *  153.31500000  * -44.93700000  *
   346       N         79.90700000  *  153.32000000  * -46.24700000  *
   347       H         80.40500000  *  153.76400000  * -47.01000000  *
   348       C         80.34300000  *  152.02200000  * -45.76800000  *
   349       H         79.49500000  *  151.49800000  * -45.35900000  *
   350       C         80.94400000  *  151.18600000  * -46.89500000  *
   351       H         81.78600000  *  151.78200000  * -47.16900000  *
   352       C         81.42400000  *  149.85200000  * -46.34500000  *
   353       H         80.65600000  *  149.35200000  * -45.75200000  *
   354       H         81.67900000  *  149.19900000  * -47.17900000  *
   355       H         82.34500000  *  149.95700000  * -45.76100000  *
   356       C         79.89700000  *  150.97600000  * -47.99700000  *
   357       H         79.60200000  *  151.87000000  * -48.50000000  *
   358       H         80.28300000  *  150.30500000  * -48.75000000  *
   359       C         78.59100000  *  150.36100000  * -47.52600000  *
   360       H         78.17700000  *  150.90100000  * -46.69000000  *
   361       H         77.89400000  *  150.33700000  * -48.36300000  *
   362       H         78.77100000  *  149.33300000  * -47.20900000  *
   363       C         81.33300000  *  152.07100000  * -44.61400000  *
   364       O         82.16700000  *  152.98000000  * -44.51900000  *
   365       N         81.21100000  *  151.07100000  * -43.74300000  *
   366       H         80.50300000  *  150.36100000  * -43.92800000  *
   367       C         82.04400000  *  150.90200000  * -42.55200000  *
   368       H         81.47500000  *  151.18100000  * -41.66300000  *
   369       H         82.35800000  *  149.86100000  * -42.45900000  *
   370       H         82.94700000  *  151.51400000  * -42.62000000  *
   371       H         81.25700000  *  144.04600000  * -57.89900000  *
   372       C         80.50000000  *  144.84100000  * -57.88800000  *
   373       O         79.71500000  *  144.99000000  * -58.82400000  *
   374       N         80.49900000  *  145.60300000  * -56.79700000  *
   375       H         81.28000000  *  145.52500000  * -56.16600000  *
   376       C         79.57000000  *  146.70600000  * -56.61200000  *
   377       H         78.57500000  *  146.34400000  * -56.42300000  *
   378       C         80.00500000  *  147.61000000  * -55.44200000  *
   379       H         80.89800000  *  148.18000000  * -55.68500000  *
   380       C         78.90600000  *  148.60800000  * -55.12500000  *
   381       H         77.92000000  *  148.14100000  * -55.17600000  *
   382       H         79.04500000  *  148.98700000  * -54.11600000  *
   383       H         78.93800000  *  149.43600000  * -55.83300000  *
   384       C         80.32100000  *  146.76200000  * -54.20900000  *
   385       H         81.19200000  *  146.13400000  * -54.40600000  *
   386       H         80.59400000  *  147.42200000  * -53.38900000  *
   387       C         79.18400000  *  145.87900000  * -53.76500000  *
   388       H         78.77800000  *  145.31100000  * -54.59400000  *
   389       H         79.50900000  *  145.12200000  * -53.06500000  *
   390       H         78.38800000  *  146.48300000  * -53.33500000  *
   391       C         79.54300000  *  147.54500000  * -57.87900000  *
   392       O         78.48200000  *  147.77900000  * -58.45100000  *
   393       N         80.72300000  *  147.98900000  * -58.30900000  *
   394       H         81.55800000  *  147.70100000  * -57.81200000  *
   395       C         80.85900000  *  148.80400000  * -59.51100000  *
   396       H         80.33900000  *  149.74600000  * -59.38600000  *
   397       H         81.92800000  *  148.98500000  * -59.72900000  *
   398       H         80.37800000  *  148.32200000  * -60.38100000  *
   399       H         78.96400000  *  146.08700000  * -61.65600000  *
   400       C         77.87300000  *  146.08700000  * -61.51600000  *
   401       O         77.11500000  *  145.89500000  * -62.46400000  *
   402       N         77.44600000  *  146.31800000  * -60.28000000  *
   403       H         78.13400000  *  146.42500000  * -59.54900000  *
   404       C         76.02800000  *  146.35200000  * -59.94500000  *
   405       H         75.53300000  *  145.47600000  * -60.35900000  *
   406       C         75.84100000  *  146.37400000  * -58.43100000  *
   407       H         76.20500000  *  147.30400000  * -58.01800000  *
   408       H         74.76300000  *  146.35700000  * -58.24200000  *
   409       C         76.47200000  *  145.22200000  * -57.65900000  *
   410       H         77.55000000  *  145.23900000  * -57.74900000  *
   411       C         76.08000000  *  145.34100000  * -56.19200000  *
   412       H         74.99900000  *  145.23000000  * -56.07700000  *
   413       H         76.57300000  *  144.55300000  * -55.62900000  *
   414       H         76.38500000  *  146.30900000  * -55.80100000  *
   415       C         75.99600000  *  143.89000000  * -58.23600000  *
   416       H         76.41500000  *  143.73000000  * -59.22900000  *
   417       H         76.32800000  *  143.07800000  * -57.59100000  *
   418       H         74.90500000  *  143.87400000  * -58.30500000  *
   419       C         75.32200000  *  147.55900000  * -60.54800000  *
   420       O         74.09500000  *  147.56800000  * -60.66200000  *
   421       N         76.08400000  *  148.63100000  * -60.82900000  *
   422       H         77.08200000  *  148.53500000  * -60.67700000  *
   423       C         75.60100000  *  149.83300000  * -61.53400000  *
   424       H         74.83700000  *  150.33500000  * -60.94100000  *
   425       H         76.43800000  *  150.53300000  * -61.75900000  *
   426       H         75.13800000  *  149.54900000  * -62.49200000  *
   427       H         62.79000000  *  145.77200000  * -59.27600000  *
   428       C         63.71000000  *  145.72000000  * -58.67500000  *
   429       O         63.77900000  *  145.02200000  * -57.66400000  *
   430       N         64.72400000  *  146.45200000  * -59.11400000  *
   431       H         64.63800000  *  147.05100000  * -59.92700000  *
   432       C         65.97100000  *  146.53500000  * -58.38100000  *
   433       H         65.88400000  *  146.09200000  * -57.38600000  *
   434       C         67.11600000  *  145.87700000  * -59.11400000  *
   435       H         67.33600000  *  146.42600000  * -60.03000000  *
   436       C         68.35100000  *  145.87800000  * -58.21400000  *
   437       H         68.14700000  *  145.31400000  * -57.31800000  *
   438       H         69.21000000  *  145.44500000  * -58.72400000  *
   439       H         68.64100000  *  146.89000000  * -57.94500000  *
   440       C         66.72800000  *  144.44400000  * -59.47800000  *
   441       H         66.54900000  *  143.87300000  * -58.56400000  *
   442       H         65.81500000  *  144.42400000  * -60.06800000  *
   443       C         67.77400000  *  143.72700000  * -60.29600000  *
   444       H         68.68300000  *  143.57700000  * -59.72200000  *
   445       H         67.37700000  *  142.75300000  * -60.59800000  *
   446       H         68.02300000  *  144.31300000  * -61.18000000  *
   447       C         66.29500000  *  148.01000000  * -58.22000000  *
   448       O         66.21200000  *  148.78000000  * -59.18400000  *
   449       N         66.55100000  *  148.44200000  * -56.98100000  *
   450       H         66.62200000  *  147.76200000  * -56.22900000  *
   451       C         66.88500000  *  149.84200000  * -56.68500000  *
   452       H         66.06900000  *  150.48100000  * -57.02500000  *
   453       C         67.07800000  *  150.06900000  * -55.17800000  *
   454       H         67.89300000  *  149.43900000  * -54.81900000  *
   455       C         67.40500000  *  151.53100000  * -54.85000000  *
   456       H         66.56900000  *  152.17500000  * -55.11800000  *
   457       H         67.60100000  *  151.62500000  * -53.78300000  *
   458       H         68.28900000  *  151.86200000  * -55.39000000  *
   459       C         65.80800000  *  149.71500000  * -54.40400000  *
   460       H         65.55100000  *  148.66700000  * -54.53100000  *
   461       H         65.99100000  *  149.88900000  * -53.35100000  *
   462       H         64.97700000  *  150.33000000  * -54.74300000  *
   463       C         68.15000000  *  150.21900000  * -57.44900000  *
   464       O         69.17800000  *  149.54900000  * -57.32100000  *
   465       N         68.08000000  *  151.28300000  * -58.25100000  *
   466       H         67.22500000  *  151.80400000  * -58.24500000  *
   467       C         69.18900000  *  151.69800000  * -59.08000000  *
   468       H         69.52500000  *  150.81900000  * -59.63900000  *
   469       C         68.73700000  *  152.76800000  * -60.08300000  *
   470       H         67.83400000  *  152.41100000  * -60.57900000  *
   471       H         68.47700000  *  153.68100000  * -59.53700000  *
   472       C         69.79100000  *  153.06900000  * -61.13100000  *
   473       H         70.72100000  *  153.35000000  * -60.64200000  *
   474       H         69.97400000  *  152.16800000  * -61.71600000  *
   475       C         69.35100000  *  154.17900000  * -62.08100000  *
   476       H         68.50200000  *  153.81400000  * -62.66100000  *
   477       H         69.02300000  *  155.05600000  * -61.52200000  *
   478       C         70.49800000  *  154.55900000  * -63.02400000  *
   479       H         71.33900000  *  154.89000000  * -62.40800000  *
   480       H         70.81900000  *  153.66100000  * -63.56600000  *
   481       N         70.11800000  *  155.62600000  * -63.99700000  *
   482       H         69.74700000  *  156.41600000  * -63.48300000  *
   483       H         70.92600000  *  155.93300000  * -64.52500000  *
   484       H         69.41500000  *  155.27800000  * -64.63600000  *
   485       C         70.36000000  *  152.21400000  * -58.25300000  *
   486       O         70.19400000  *  153.07400000  * -57.38700000  *
   487       N         71.53700000  *  151.64500000  * -58.50700000  *
   488       H         71.59600000  *  150.90400000  * -59.18600000  *
   489       C         72.75000000  *  152.07400000  * -57.83600000  *
   490       H         72.53800000  *  152.52600000  * -56.87100000  *
   491       C         73.72700000  *  150.91100000  * -57.67000000  *
   492       H         73.31500000  *  150.22100000  * -56.93700000  *
   493       H         73.77900000  *  150.36900000  * -58.62000000  *
   494       C         75.16700000  *  151.27300000  * -57.28800000  *
   495       H         75.65500000  *  151.80300000  * -58.10000000  *
   496       C         75.18300000  *  152.16500000  * -56.05900000  *
   497       H         74.60800000  *  151.72100000  * -55.25200000  *
   498       H         76.21000000  *  152.29600000  * -55.73500000  *
   499       H         74.78900000  *  153.14000000  * -56.31200000  *
   500       C         75.93300000  *  149.99400000  * -57.01300000  *
   501       H         75.98300000  *  149.42100000  * -57.93300000  *
   502       H         76.94600000  *  150.24200000  * -56.71200000  *
   503       H         75.43500000  *  149.41000000  * -56.23200000  *
   504       C         73.31900000  *  153.11300000  * -58.79500000  *
   505       O         73.76900000  *  152.77900000  * -59.89700000  *
   506       N         73.26700000  *  154.36900000  * -58.37800000  *
   507       H         72.92600000  *  154.57000000  * -57.44900000  *
   508       C         73.73400000  *  155.46600000  * -59.19700000  *
   509       H         73.47500000  *  155.26500000  * -60.23600000  *
   510       C         73.02500000  *  156.74200000  * -58.76000000  *
   511       H         73.45000000  *  157.06300000  * -57.80900000  *
   512       H         73.23600000  *  157.53300000  * -59.48700000  *
   513       C         71.51300000  *  156.60300000  * -58.58700000  *
   514       H         71.27400000  *  155.80900000  * -57.88500000  *
   515       C         70.97400000  *  157.88000000  * -58.01900000  *
   516       H         71.37000000  *  158.74600000  * -58.56000000  *
   517       H         69.88800000  *  157.89100000  * -58.09300000  *
   518       H         71.22100000  *  157.96000000  * -56.96600000  *
   519       C         70.85100000  *  156.29000000  * -59.92300000  *
   520       H         71.28300000  *  155.39700000  * -60.34200000  *
   521       H         69.78900000  *  156.14400000  * -59.75100000  *
   522       H         71.00300000  *  157.12700000  * -60.60700000  *
   523       C         75.24500000  *  155.67800000  * -59.15800000  *
   524       O         75.83900000  *  156.04700000  * -60.17600000  *
   525       N         75.86200000  *  155.44600000  * -57.99600000  *
   526       H         75.29500000  *  155.17900000  * -57.20400000  *
   527       C         77.30800000  *  155.64700000  * -57.82900000  *
   528       H         77.80800000  *  155.40400000  * -58.76600000  *
   529       C         77.60000000  *  157.11700000  * -57.51900000  *
   530       H         76.91700000  *  157.54400000  * -56.80300000  *
   531       H         78.58200000  *  157.17000000  * -57.04800000  *
   532       C         77.65600000  *  157.97500000  * -58.75600000  *
   533       O         78.67800000  *  157.91700000  * -59.48300000  *
   534       O         76.67400000  *  158.70400000  * -59.00000000  *
   535       C         77.97900000  *  154.81700000  * -56.73400000  *
   536       O         77.37100000  *  154.52100000  * -55.70400000  *
   537       N         79.24700000  *  154.47700000  * -56.96600000  *
   538       H         79.69800000  *  154.82400000  * -57.79800000  *
   539       C         80.06100000  *  153.73800000  * -56.00300000  *
   540       H         79.55400000  *  153.69900000  * -55.05200000  *
   541       C         80.36600000  *  152.29800000  * -56.50400000  *
   542       H         79.42700000  *  151.75200000  * -56.56200000  *
   543       C         80.98100000  *  152.34300000  * -57.88400000  *
   544       H         82.06600000  *  152.43300000  * -57.82100000  *
   545       H         80.74600000  *  151.41400000  * -58.37900000  *
   546       H         80.59600000  *  153.14500000  * -58.51000000  *
   547       C         81.29900000  *  151.58800000  * -55.53900000  *
   548       H         80.81100000  *  151.54900000  * -54.57200000  *
   549       H         81.47300000  *  150.57200000  * -55.87800000  *
   550       H         82.25900000  *  152.09200000  * -55.44900000  *
   551       C         81.36500000  *  154.53600000  * -55.81000000  *
   552       O         82.27000000  *  154.48900000  * -56.64700000  *
   553       N         81.45200000  *  155.28200000  * -54.71000000  *
   554       H         80.67600000  *  155.30400000  * -54.06400000  *
   555       C         82.62100000  *  156.11100000  * -54.44300000  *
   556       H         83.20500000  *  156.21800000  * -55.35800000  *
   557       H         82.32200000  *  157.12800000  * -54.14500000  *
   558       H         83.29700000  *  155.73900000  * -53.65600000  *
   559       H         84.58000000  *  155.17100000  * -47.07300000  *
   560       C         84.22500000  *  154.98400000  * -48.09100000  *
   561       O         84.63900000  *  155.65900000  * -49.04200000  *
   562       N         83.35800000  *  153.99100000  * -48.22200000  *
   563       H         83.13600000  *  153.42800000  * -47.41700000  *
   564       C         82.77600000  *  153.65100000  * -49.50600000  *
   565       H         83.37000000  *  154.04700000  * -50.31700000  *
   566       C         82.71900000  *  152.14000000  * -49.66000000  *
   567       H         83.74000000  *  151.87500000  * -49.95700000  *
   568       H         82.64400000  *  151.54600000  * -48.78400000  *
   569       C         81.82600000  *  151.61900000  * -50.77900000  *
   570       H         80.79100000  *  151.88400000  * -50.58700000  *
   571       C         82.25800000  *  152.23100000  * -52.09200000  *
   572       H         83.31100000  *  152.49100000  * -52.08900000  *
   573       H         82.09300000  *  151.51300000  * -52.88400000  *
   574       H         81.65400000  *  153.10900000  * -52.31200000  *
   575       C         81.89900000  *  150.09400000  * -50.82200000  *
   576       H         81.91300000  *  149.66400000  * -49.82700000  *
   577       H         81.05200000  *  149.70600000  * -51.39100000  *
   578       H         82.82500000  *  149.80300000  * -51.32100000  *
   579       C         81.36700000  *  154.23200000  * -49.54800000  *
   580       O         80.51800000  *  153.85700000  * -48.74500000  *
   581       N         81.13100000  *  155.16100000  * -50.46700000  *
   582       H         81.84500000  *  155.34800000  * -51.16200000  *
   583       C         79.82200000  *  155.78100000  * -50.60800000  *
   584       H         79.27400000  *  155.67000000  * -49.68700000  *
   585       C         79.96700000  *  157.27800000  * -50.86800000  *
   586       H         80.42300000  *  157.50400000  * -51.79700000  *
   587       H         78.95400000  *  157.66400000  * -50.98900000  *
   588       C         80.57600000  *  158.04300000  * -49.72300000  *
   589       C         79.79300000  *  158.48000000  * -48.65600000  *
   590       H         78.73500000  *  158.25400000  * -48.66900000  *
   591       C         80.35600000  *  159.18600000  * -47.59400000  *
   592       H         79.75300000  *  159.56200000  * -46.79700000  *
   593       C         81.71600000  *  159.45200000  * -47.58700000  *
   594       O         82.27600000  *  160.12500000  * -46.52100000  *
   595       H         83.20600000  *  160.30800000  * -46.74500000  *
   596       C         82.51400000  *  159.02600000  * -48.63700000  *
   597       H         83.58200000  *  159.23300000  * -48.65000000  *
   598       C         81.94100000  *  158.32800000  * -49.69800000  *
   599       H         82.57400000  *  157.98100000  * -50.50200000  *
   600       C         79.04800000  *  155.15800000  * -51.76500000  *
   601       O         79.54400000  *  155.08000000  * -52.88800000  *
   602       N         77.86400000  *  154.61900000  * -51.49500000  *
   603       H         77.53900000  *  154.63600000  * -50.53300000  *
   604       C         76.98200000  *  154.05500000  * -52.51600000  *
   605       H         77.50900000  *  154.00900000  * -53.46300000  *
   606       C         76.54700000  *  152.62000000  * -52.17300000  *
   607       H         75.84400000  *  152.65500000  * -51.34900000  *
   608       H         76.01600000  *  152.22100000  * -53.03700000  *
   609       C         77.68300000  *  151.65000000  * -51.80500000  *
   610       H         78.18600000  *  151.99300000  * -50.90200000  *
   611       C         77.11600000  *  150.25600000  * -51.54500000  *
   612       H         76.63300000  *  149.87200000  * -52.44500000  *
   613       H         77.92200000  *  149.57900000  * -51.25600000  *
   614       H         76.39100000  *  150.30000000  * -50.73500000  *
   615       C         78.70000000  *  151.53700000  * -52.93400000  *
   616       H         79.21600000  *  152.48500000  * -53.05700000  *
   617       H         79.43800000  *  150.77800000  * -52.68300000  *
   618       H         78.19800000  *  151.27200000  * -53.86500000  *
   619       C         75.78700000  *  154.98500000  * -52.67300000  *
   620       O         75.10400000  *  155.25900000  * -51.68200000  *
   621       N         75.54700000  *  155.50800000  * -53.87800000  *
   622       H         76.14500000  *  155.25500000  * -54.66000000  *
   623       C         74.40900000  *  156.37500000  * -54.09400000  *
   624       H         73.97600000  *  156.70200000  * -53.15000000  *
   625       C         74.83400000  *  157.63700000  * -54.81800000  *
   626       H         75.25500000  *  157.34500000  * -55.76600000  *
   627       C         73.61400000  *  158.52200000  * -55.10900000  *
   628       H         73.11700000  *  158.76900000  * -54.17500000  *
   629       H         73.94100000  *  159.43100000  * -55.61500000  *
   630       H         72.91600000  *  158.00900000  * -55.76200000  *
   631       C         75.84000000  *  158.38200000  * -53.94900000  *
   632       H         75.28100000  *  158.78400000  * -53.13000000  *
   633       H         76.65600000  *  157.75800000  * -53.60500000  *
   634       H         76.26100000  *  159.20400000  * -54.52500000  *
   635       C         73.31400000  *  155.64400000  * -54.85300000  *
   636       O         73.49500000  *  155.22100000  * -55.99400000  *
   637       N         72.21600000  *  155.37300000  * -54.15400000  *
   638       H         72.15000000  *  155.72400000  * -53.20200000  *
   639       C         71.03400000  *  154.70500000  * -54.69000000  *
   640       H         71.27900000  *  154.24000000  * -55.64000000  *
   641       C         70.57100000  *  153.61100000  * -53.72100000  *
   642       H         70.46700000  *  154.04000000  * -52.72500000  *
   643       H         69.58100000  *  153.27700000  * -54.02900000  *
   644       C         71.47900000  *  152.39800000  * -53.64400000  *
   645       C         71.28500000  *  151.31600000  * -54.52500000  *
   646       H         70.51500000  *  151.36100000  * -55.28000000  *
   647       C         72.08500000  *  150.16400000  * -54.42200000  *
   648       H         71.92400000  *  149.33200000  * -55.09500000  *
   649       C         73.09100000  *  150.09300000  * -53.44400000  *
   650       H         73.70700000  *  149.20600000  * -53.36500000  *
   651       C         73.29500000  *  151.17500000  * -52.57000000  *
   652       H         74.06400000  *  151.11400000  * -51.81500000  *
   653       C         72.49500000  *  152.32800000  * -52.67000000  *
   654       H         72.65200000  *  153.15600000  * -51.99200000  *
   655       C         69.91300000  *  155.71900000  * -54.92700000  *
   656       O         69.78300000  *  156.69500000  * -54.18600000  *
   657       N         69.08400000  *  155.50100000  * -55.94800000  *
   658       H         69.23100000  *  154.67600000  * -56.52000000  *
   659       C         67.82300000  *  156.24600000  * -56.08500000  *
   660       H         68.06900000  *  157.29500000  * -56.25600000  *
   661       C         67.03100000  *  155.75100000  * -57.30800000  *
   662       H         66.16500000  *  156.40200000  * -57.43000000  *
   663       H         67.65800000  *  155.84000000  * -58.19700000  *
   664       C         66.55100000  *  154.29700000  * -57.17700000  *
   665       H         67.42300000  *  153.64900000  * -57.07500000  *
   666       H         65.95200000  *  154.19900000  * -56.27600000  *
   667       C         65.68600000  *  153.81200000  * -58.34300000  *
   668       O         65.17100000  *  154.63300000  * -59.13600000  *
   669       O         65.48500000  *  152.58000000  * -58.43400000  *
   670       C         66.98900000  *  156.16200000  * -54.78800000  *
   671       O         66.91800000  *  155.10900000  * -54.15000000  *
   672       N         66.36800000  *  157.26200000  * -54.36100000  *
   673       H         66.41300000  *  158.10700000  * -54.91300000  *
   674       C         65.49600000  *  157.25200000  * -53.18300000  *
   675       H         65.97000000  *  156.65600000  * -52.40000000  *
   676       C         65.34900000  *  158.67700000  * -52.64400000  *
   677       H         66.33700000  *  159.05200000  * -52.38200000  *
   678       H         64.94400000  *  159.31500000  * -53.43100000  *
   679       C         64.46400000  *  158.78200000  * -51.41800000  *
   680       C         63.14800000  *  159.27000000  * -51.52900000  *
   681       H         62.76100000  *  159.57900000  * -52.49000000  *
   682       C         62.32900000  *  159.35200000  * -50.38900000  *
   683       H         61.31800000  *  159.72400000  * -50.47800000  *
   684       C         62.82400000  *  158.94700000  * -49.13700000  *
   685       H         62.19300000  *  159.01200000  * -48.26200000  *
   686       C         64.13900000  *  158.46100000  * -49.02400000  *
   687       H         64.52400000  *  158.15500000  * -48.06200000  *
   688       C         64.95700000  *  158.37600000  * -50.16400000  *
   689       H         65.96600000  *  157.99600000  * -50.07900000  *
   690       C         64.12900000  *  156.62200000  * -53.49200000  *
   691       O         63.50500000  *  156.95400000  * -54.50400000  *
   692       N         63.64200000  *  155.75800000  * -52.59600000  *
   693       H         64.21900000  *  155.52600000  * -51.79400000  *
   694       C         62.25400000  *  155.28400000  * -52.57200000  *
   695       H         61.67800000  *  155.80600000  * -53.33800000  *
   696       C         62.16700000  *  153.77400000  * -52.85100000  *
   697       H         62.92800000  *  153.25400000  * -52.27100000  *
   698       H         61.19200000  *  153.43300000  * -52.50000000  *
   699       C         62.29100000  *  153.41300000  * -54.34300000  *
   700       H         61.89700000  *  154.22600000  * -54.95300000  *
   701       C         63.74200000  *  153.14600000  * -54.73600000  *
   702       H         64.15500000  *  152.35300000  * -54.11600000  *
   703       H         63.80000000  *  152.86500000  * -55.78700000  *
   704       H         64.33400000  *  154.04700000  * -54.58900000  *
   705       C         61.47900000  *  152.15600000  * -54.66500000  *
   706       H         60.43900000  *  152.30100000  * -54.37200000  *
   707       H         61.50700000  *  151.96600000  * -55.73700000  *
   708       H         61.88300000  *  151.29500000  * -54.13500000  *
   709       C         61.60600000  *  155.63300000  * -51.22900000  *
   710       O         62.26100000  *  155.67500000  * -50.18900000  *
   711       N         60.31300000  *  155.93500000  * -51.26300000  *
   712       H         59.83500000  *  155.89200000  * -52.15500000  *
   713       C         59.61400000  *  156.62100000  * -50.17700000  *
   714       H         60.21800000  *  157.48300000  * -49.88700000  *
   715       C         58.28300000  *  157.16000000  * -50.71500000  *
   716       H         57.58500000  *  156.33000000  * -50.83300000  *
   717       H         57.88200000  *  157.85200000  * -49.97900000  *
   718       C         58.38900000  *  157.87900000  * -52.04100000  *
   719       N         58.43600000  *  157.26100000  * -53.29600000  *
   720       C         58.57900000  *  158.25400000  * -54.19000000  *
   721       H         58.64900000  *  158.11900000  * -55.26400000  *
   722       N         58.63200000  *  159.44200000  * -53.56500000  *
   723       H         58.74000000  *  160.34000000  * -54.02700000  *
   724       C         58.52000000  *  159.22700000  * -52.20900000  *
   725       H         58.54100000  *  159.97400000  * -51.42500000  *
   726       C         59.41600000  *  155.79500000  * -48.89400000  *
   727       O         59.30800000  *  156.38300000  * -47.81800000  *
   728       N         59.37600000  *  154.45900000  * -48.97700000  *
   729       H         59.48100000  *  154.03300000  * -49.88900000  *
   730       C         59.05400000  *  153.57000000  * -47.84900000  *
   731       H         59.52200000  *  153.97000000  * -46.94800000  *
   732       C         57.52200000  *  153.58900000  * -47.65300000  *
   733       H         57.22200000  *  154.61600000  * -47.43700000  *
   734       H         57.02900000  *  153.28800000  * -48.57900000  *
   735       C         57.02200000  *  152.68900000  * -46.51400000  *
   736       H         56.83000000  *  151.69000000  * -46.90300000  *
   737       H         57.78900000  *  152.62100000  * -45.74400000  *
   738       C         55.76300000  *  153.23500000  * -45.84800000  *
   739       O         55.82300000  *  154.02600000  * -44.92100000  *
   740       N         54.58500000  *  152.83600000  * -46.27800000  *
   741       H         53.77700000  *  153.21300000  * -45.80500000  *
   742       H         54.50800000  *  152.21600000  * -47.06300000  *
   743       C         59.60000000  *  152.14200000  * -48.05600000  *
   744       O         59.67000000  *  151.66600000  * -49.18900000  *
   745       N         59.98300000  *  151.45000000  * -46.97400000  *
   746       H         59.91000000  *  151.88700000  * -46.06900000  *
   747       C         60.30400000  *  150.01200000  * -47.00400000  *
   748       H         60.60700000  *  149.77300000  * -48.01900000  *
   749       C         61.53000000  *  149.69000000  * -46.12300000  *
   750       H         61.86900000  *  148.68900000  * -46.39200000  *
   751       H         62.33100000  *  150.38200000  * -46.38600000  *
   752       C         61.31700000  *  149.71900000  * -44.60200000  *
   753       O         60.25900000  *  149.25800000  * -44.12700000  *
   754       O         62.24000000  *  150.16200000  * -43.88100000  *
   755       C         59.08600000  *  149.11000000  * -46.70900000  *
   756       O         58.05600000  *  149.55700000  * -46.18700000  *
   757       N         59.19100000  *  147.81900000  * -47.04800000  *
   758       H         60.03800000  *  147.50900000  * -47.52500000  *
   759       C         58.10100000  *  146.88000000  * -46.84100000  *
   760       H         57.21800000  *  147.32500000  * -47.29300000  *
   761       C         58.41200000  *  145.57700000  * -47.59200000  *
   762       H         58.61300000  *  145.80400000  * -48.64400000  *
   763       H         59.28800000  *  145.12100000  * -47.15800000  *
   764       C         57.28700000  *  144.52700000  * -47.51900000  *
   765       H         57.05600000  *  144.28000000  * -46.48700000  *
   766       C         56.00700000  *  145.04400000  * -48.19600000  *
   767       H         56.23500000  *  145.37800000  * -49.20200000  *
   768       H         55.26800000  *  144.24500000  * -48.23100000  *
   769       H         55.59500000  *  145.87000000  * -47.62900000  *
   770       C         57.76800000  *  143.24900000  * -48.17500000  *
   771       H         58.61500000  *  142.85400000  * -47.62000000  *
   772       H         56.97300000  *  142.50400000  * -48.17100000  *
   773       H         58.06400000  *  143.44500000  * -49.20700000  *
   774       C         57.76400000  *  146.61300000  * -45.36900000  *
   775       O         56.60900000  *  146.37600000  * -45.03000000  *
   776       N         58.75700000  *  146.67700000  * -44.48800000  *
   777       H         59.64000000  *  147.08600000  * -44.79000000  *
   778       C         58.49100000  *  146.46700000  * -43.07300000  *
   779       H         57.97900000  *  145.55100000  * -42.87200000  *
   780       C         59.78200000  *  146.47800000  * -42.25400000  *
   781       H         60.44800000  *  145.70000000  * -42.62000000  *
   782       H         60.28600000  *  147.44000000  * -42.35600000  *
   783       C         59.49200000  *  146.22900000  * -40.76500000  *
   784       H         58.94200000  *  147.08300000  * -40.37400000  *
   785       H         58.87100000  *  145.33200000  * -40.67600000  *
   786       C         60.74500000  *  146.03800000  * -39.93500000  *
   787       H         61.36100000  *  145.25900000  * -40.37900000  *
   788       H         61.30800000  *  146.97100000  * -39.90700000  *
   789       C         60.37600000  *  145.60700000  * -38.51700000  *
   790       H         59.98500000  *  144.58900000  * -38.53700000  *
   791       H         61.27900000  *  145.61300000  * -37.90300000  *
   792       N         59.34600000  *  146.53100000  * -37.94700000  *
   793       H         58.44600000  *  146.48100000  * -38.44300000  *
   794       H         59.09000000  *  146.27800000  * -37.00400000  *
   795       H         59.61300000  *  147.50600000  * -37.97800000  *
   796       C         57.55800000  *  147.53800000  * -42.51200000  *
   797       O         56.61300000  *  147.23400000  * -41.78300000  *
   798       N         57.83500000  *  148.80800000  * -42.80900000  *
   799       H         58.66600000  *  148.99200000  * -43.37600000  *
   800       C         57.02400000  *  149.93900000  * -42.34900000  *
   801       H         56.92300000  *  149.88300000  * -41.26300000  *
   802       C         57.76500000  *  151.23600000  * -42.70000000  *
   803       H         58.77100000  *  151.17800000  * -42.27900000  *
   804       H         57.85300000  *  151.32000000  * -43.78300000  *
   805       C         57.07800000  *  152.49000000  * -42.14100000  *
   806       H         56.13300000  *  152.64700000  * -42.66100000  *
   807       H         56.87600000  *  152.35400000  * -41.07800000  *
   808       C         57.99200000  *  153.71000000  * -42.32500000  *
   809       H         58.86600000  *  153.59000000  * -41.68200000  *
   810       H         58.32200000  *  153.76500000  * -43.36400000  *
   811       C         57.26200000  *  155.00800000  * -41.96500000  *
   812       H         56.48200000  *  155.18500000  * -42.71300000  *
   813       H         56.77300000  *  154.88600000  * -40.99400000  *
   814       N         58.19900000  *  156.16000000  * -41.91800000  *
   815       H         58.78100000  *  156.21500000  * -42.75600000  *
   816       H         57.69600000  *  157.03200000  * -41.82400000  *
   817       H         58.82000000  *  156.08400000  * -41.12600000  *
   818       C         55.61400000  *  149.85600000  * -42.93100000  *
   819       O         54.64200000  *  150.11700000  * -42.22900000  *
   820       N         55.49500000  *  149.42600000  * -44.18900000  *
   821       H         56.35000000  *  149.26300000  * -44.71300000  *
   822       C         54.20500000  *  149.26000000  * -44.85200000  *
   823       H         53.62600000  *  150.17500000  * -44.72500000  *
   824       C         54.41000000  *  148.98800000  * -46.34000000  *
   825       H         54.98900000  *  149.80200000  * -46.77700000  *
   826       H         55.00200000  *  148.07700000  * -46.45200000  *
   827       C         53.12600000  *  148.85300000  * -47.10800000  *
   828       C         52.23100000  *  149.92200000  * -47.18600000  *
   829       H         52.46300000  *  150.85600000  * -46.69900000  *
   830       C         51.01500000  *  149.79500000  * -47.88400000  *
   831       H         50.32500000  *  150.62800000  * -47.91800000  *
   832       C         50.69700000  *  148.60300000  * -48.50200000  *
   833       H         49.75200000  *  148.50200000  * -49.02000000  *
   834       C         51.58700000  *  147.52100000  * -48.43200000  *
   835       H         51.33500000  *  146.58300000  * -48.91200000  *
   836       C         52.79500000  *  147.65400000  * -47.73300000  *
   837       H         53.46700000  *  146.81000000  * -47.67200000  *
   838       C         53.37400000  *  148.12200000  * -44.22700000  *
   839       O         52.16900000  *  148.28300000  * -44.00900000  *
   840       N         54.01600000  *  146.98100000  * -43.96600000  *
   841       H         55.00900000  *  146.90600000  * -44.17900000  *
   842       C         53.33800000  *  145.83600000  * -43.34100000  *
   843       H         52.47600000  *  145.52800000  * -43.93400000  *
   844       C         54.29200000  *  144.65000000  * -43.17000000  *
   845       H         55.15800000  *  145.02700000  * -42.63600000  *
   846       H         53.80700000  *  143.89200000  * -42.54700000  *
   847       C         54.73100000  *  144.00400000  * -44.46100000  *
   848       H         53.84700000  *  143.61400000  * -44.95900000  *
   849       H         55.19200000  *  144.69400000  * -45.15000000  *
   850       S         55.79700000  *  142.58100000  * -44.15400000  *
   851       C         57.05400000  *  143.29200000  * -43.18800000  *
   852       H         56.67800000  *  143.65800000  * -42.23500000  *
   853       H         57.80700000  *  142.53400000  * -42.98200000  *
   854       H         57.44300000  *  144.07900000  * -43.80900000  *
   855       C         52.84400000  *  146.26000000  * -41.95900000  *
   856       O         51.68200000  *  146.03200000  * -41.61400000  *
   857       N         53.72600000  *  146.88400000  * -41.17900000  *
   858       H         54.70100000  *  146.95700000  * -41.45300000  *
   859       C         53.34300000  *  147.35100000  * -39.84600000  *
   860       H         53.03400000  *  146.49700000  * -39.23800000  *
   861       C         54.50500000  *  148.07700000  * -39.15700000  *
   862       H         54.94100000  *  148.81500000  * -39.83000000  *
   863       H         54.12400000  *  148.60600000  * -38.28400000  *
   864       C         55.58400000  *  147.11500000  * -38.68500000  *
   865       O         55.26200000  *  145.90900000  * -38.57600000  *
   866       O         56.73300000  *  147.55200000  * -38.41700000  *
   867       C         52.15000000  *  148.27900000  * -39.96300000  *
   868       O         51.20300000  *  148.18000000  * -39.18700000  *
   869       N         52.18300000  *  149.16200000  * -40.95500000  *
   870       H         53.01600000  *  149.23700000  * -41.51800000  *
   871       C         51.08600000  *  150.10000000  * -41.17300000  *
   872       H         50.93100000  *  150.67400000  * -40.25800000  *
   873       C         51.42800000  *  151.06800000  * -42.31500000  *
   874       H         51.45500000  *  150.53900000  * -43.26600000  *
   875       H         50.66000000  *  151.83800000  * -42.36800000  *
   876       H         52.39300000  *  151.53600000  * -42.12800000  *
   877       C         49.78900000  *  149.37000000  * -41.49900000  *
   878       O         48.71100000  *  149.83600000  * -41.15600000  *
   879       N         49.90500000  *  148.22900000  * -42.16400000  *
   880       H         50.83800000  *  147.88500000  * -42.38200000  *
   881       C         48.74000000  *  147.45400000  * -42.57500000  *
   882       H         47.85700000  *  148.08600000  * -42.62800000  *
   883       H         48.90600000  *  147.02300000  * -43.58600000  *
   884       H         48.52600000  *  146.61900000  * -41.88800000  *
   885       H         72.54500000  *  137.05800000  * -55.15200000  *
   886       C         72.38600000  *  137.90500000  * -54.47400000  *
   887       O         73.28300000  *  138.71900000  * -54.28600000  *
   888       N         71.20100000  *  138.01500000  * -53.89800000  *
   889       H         70.47300000  *  137.31400000  * -54.05700000  *
   890       C         70.96800000  *  139.10000000  * -52.94900000  *
   891       H         71.50000000  *  140.00600000  * -53.22900000  *
   892       C         69.47700000  *  139.40500000  * -52.82500000  *
   893       H         69.09300000  *  139.71900000  * -53.79200000  *
   894       H         68.93000000  *  138.50600000  * -52.53300000  *
   895       C         69.17800000  *  140.45400000  * -51.81200000  *
   896       N         69.23000000  *  140.42300000  * -50.45900000  *
   897       C         68.94700000  *  141.69100000  * -50.01400000  *
   898       H         68.96900000  *  142.01200000  * -48.98400000  *
   899       N         68.72400000  *  142.47200000  * -51.05500000  *
   900       H         68.47200000  *  143.44500000  * -51.00700000  *
   901       C         68.85400000  *  141.75000000  * -52.15500000  *
   902       H         68.77100000  *  142.12600000  * -53.16500000  *
   903       C         71.52100000  *  138.65700000  * -51.58300000  *
   904       O         72.28000000  *  139.38000000  * -50.94700000  *
   905       N         71.11400000  *  137.47100000  * -51.14500000  *
   906       H         70.37100000  *  137.01600000  * -51.66500000  *
   907       C         71.55500000  *  136.88000000  * -49.87700000  *
   908       H         71.18200000  *  135.84900000  * -49.87900000  *
   909       C         73.07600000  *  136.85300000  * -49.83700000  *
   910       H         73.53100000  *  137.83300000  * -49.86900000  *
   911       H         73.36600000  *  136.47900000  * -48.85100000  *
   912       C         73.64700000  *  135.85900000  * -50.81700000  *
   913       H         73.29800000  *  134.87100000  * -50.67200000  *
   914       H         73.21600000  *  136.10500000  * -51.78700000  *
   915       C         75.11700000  *  136.08400000  * -50.99900000  *
   916       H         75.61200000  *  135.95400000  * -50.03300000  *
   917       H         75.49500000  *  135.33200000  * -51.69500000  *
   918       N         75.35800000  *  137.42700000  * -51.50600000  *
   919       H         74.62100000  *  138.12700000  * -51.38200000  *
   920       C         76.54800000  *  137.85900000  * -51.89000000  *
   921       N         77.59300000  *  137.04400000  * -51.81500000  *
   922       H         77.44700000  *  136.21200000  * -51.26800000  *
   923       H         78.49900000  *  137.44300000  * -51.92100000  *
   924       N         76.69000000  *  139.09300000  * -52.35600000  *
   925       H         75.86000000  *  139.69200000  * -52.33800000  *
   926       H         77.56200000  *  139.47800000  * -52.67100000  *
   927       C         71.03700000  *  137.42400000  * -48.54200000  *
   928       O         71.18700000  *  136.76800000  * -47.50900000  *
   929       N         70.43700000  *  138.60400000  * -48.51600000  *
   930       H         70.32800000  *  139.16900000  * -49.34700000  *
   931       C         69.93700000  *  139.07600000  * -47.23100000  *
   932       H         69.76500000  *  138.24900000  * -46.54100000  *
   933       C         70.93500000  *  140.04200000  * -46.56200000  *
   934       H         71.90900000  *  139.56600000  * -46.50900000  *
   935       H         71.04400000  *  140.94300000  * -47.17900000  *
   936       C         70.51300000  *  140.42800000  * -45.14700000  *
   937       O         70.17200000  *  139.51500000  * -44.35500000  *
   938       O         70.51000000  *  141.64400000  * -44.82500000  *
   939       C         68.58700000  *  139.73400000  * -47.37800000  *
   940       O         68.35000000  *  140.81000000  * -46.83500000  *
   941       N         67.68700000  *  139.08300000  * -48.11000000  *
   942       H         67.94300000  *  138.20800000  * -48.54500000  *
   943       C         66.35900000  *  139.64900000  * -48.29900000  *
   944       H         66.47700000  *  140.66700000  * -48.65900000  *
   945       C         65.54600000  *  138.81300000  * -49.28800000  *
   946       H         65.58300000  *  137.78400000  * -48.94500000  *
   947       H         64.50600000  *  139.14000000  * -49.25500000  *
   948       C         66.02700000  *  138.85500000  * -50.73600000  *
   949       H         67.06400000  *  138.52800000  * -50.78200000  *
   950       C         65.17300000  *  137.91700000  * -51.58300000  *
   951       H         64.15900000  *  138.30500000  * -51.68800000  *
   952       H         65.63400000  *  137.80700000  * -52.55000000  *
   953       H         65.13400000  *  136.93500000  * -51.11000000  *
   954       C         65.92100000  *  140.27700000  * -51.26400000  *
   955       H         66.42000000  *  140.99600000  * -50.63300000  *
   956       H         66.44200000  *  140.27500000  * -52.20900000  *
   957       H         64.88200000  *  140.56100000  * -51.39700000  *
   958       C         65.59400000  *  139.73400000  * -46.98200000  *
   959       O         65.58600000  *  138.79200000  * -46.16600000  *
   960       N         64.95400000  *  140.85400000  * -46.74700000  *
   961       H         64.96200000  *  141.58500000  * -47.44500000  *
   962       C         64.16200000  *  141.05900000  * -45.55000000  *
   963       H         63.55000000  *  140.16800000  * -45.41300000  *
   964       C         65.03800000  *  141.22000000  * -44.28800000  *
   965       H         64.40100000  *  141.28800000  * -43.40600000  *
   966       H         65.63100000  *  140.31400000  * -44.16800000  *
   967       C         65.98000000  *  142.43000000  * -44.29500000  *
   968       H         66.39900000  *  142.56800000  * -45.28900000  *
   969       H         65.42800000  *  143.32400000  * -44.01000000  *
   970       C         67.12700000  *  142.17000000  * -43.31200000  *
   971       H         66.72100000  *  141.90500000  * -42.33400000  *
   972       H         67.70700000  *  141.32400000  * -43.69200000  *
   973       C         68.03700000  *  143.39200000  * -43.16500000  *
   974       H         68.14300000  *  143.87900000  * -44.14000000  *
   975       H         67.55700000  *  144.10500000  * -42.48400000  *
   976       N         69.37100000  *  142.98300000  * -42.65200000  *
   977       H         69.86300000  *  142.41800000  * -43.35800000  *
   978       H         69.93500000  *  143.79100000  * -42.42100000  *
   979       H         69.27600000  *  142.42800000  * -41.81200000  *
   980       C         63.26400000  *  142.22800000  * -45.83900000  *
   981       O         63.62400000  *  143.07100000  * -46.66000000  *
   982       N         62.11200000  *  142.30300000  * -45.18600000  *
   983       C         61.62600000  *  141.34600000  * -44.17100000  *
   984       H         62.10000000  *  141.53200000  * -43.20900000  *
   985       H         61.74500000  *  140.31100000  * -44.47600000  *
   986       C         60.16400000  *  141.66900000  * -44.09500000  *
   987       H         59.73700000  *  141.34900000  * -43.14300000  *
   988       H         59.63700000  *  141.20600000  * -44.93200000  *
   989       C         60.16000000  *  143.18900000  * -44.24800000  *
   990       H         60.51600000  *  143.64900000  * -43.32100000  *
   991       H         59.20200000  *  143.56500000  * -44.57400000  *
   992       C         61.14500000  *  143.38000000  * -45.40300000  *
   993       H         60.63400000  *  143.20500000  * -46.34500000  *
   994       C         61.77100000  *  144.77100000  * -45.44800000  *
   995       O         61.39200000  *  145.58400000  * -46.27300000  *
   996       N         62.72700000  *  145.08500000  * -44.55600000  *
   997       H         62.96600000  *  144.39300000  * -43.86100000  *
   998       C         63.45400000  *  146.37600000  * -44.52900000  *
   999       H         62.73100000  *  147.18700000  * -44.42000000  *
  1000       C         64.42300000  *  146.42400000  * -43.33400000  *
  1001       H         65.11100000  *  145.58100000  * -43.40300000  *
  1002       H         65.01500000  *  147.33900000  * -43.40700000  *
  1003       C         63.74800000  *  146.42200000  * -41.95500000  *
  1004       H         63.07400000  *  147.27700000  * -41.89300000  *
  1005       H         63.16700000  *  145.51000000  * -41.83000000  *
  1006       C         64.77200000  *  146.49300000  * -40.81900000  *
  1007       O         65.80700000  *  145.84000000  * -40.83400000  *
  1008       N         64.52800000  *  147.27100000  * -39.78700000  *
  1009       H         65.21300000  *  147.30800000  * -39.04600000  *
  1010       H         63.70400000  *  147.85100000  * -39.75500000  *
  1011       C         64.27800000  *  146.66700000  * -45.80100000  *
  1012       O         64.47800000  *  147.82300000  * -46.16600000  *
  1013       N         64.75900000  *  145.62100000  * -46.47600000  *
  1014       H         64.47000000  *  144.70100000  * -46.17500000  *
  1015       C         65.53500000  *  145.68200000  * -47.71600000  *
  1016       H         66.09700000  *  146.61600000  * -47.75100000  *
  1017       C         66.55000000  *  144.50900000  * -47.74100000  *
  1018       H         66.05100000  *  143.58300000  * -47.46800000  *
  1019       H         66.92300000  *  144.38000000  * -48.75400000  *
  1020       C         67.77700000  *  144.70500000  * -46.85900000  *
  1021       O         68.07200000  *  145.78700000  * -46.37900000  *
  1022       N         68.54300000  *  143.66500000  * -46.60600000  *
  1023       H         69.41600000  *  143.82100000  * -46.12900000  *
  1024       H         68.30000000  *  142.71600000  * -46.87400000  *
  1025       C         64.63200000  *  145.69500000  * -48.96700000  *
  1026       O         65.15600000  *  145.60200000  * -50.07600000  *
  1027       N         63.30000000  *  145.80300000  * -48.83400000  *
  1028       H         62.89500000  *  145.87300000  * -47.90900000  *
  1029       C         62.40600000  *  145.84500000  * -49.97900000  *
  1030       H         62.94700000  *  145.74800000  * -50.91900000  *
  1031       C         61.36900000  *  144.72100000  * -49.88900000  *
  1032       H         60.76900000  *  144.86100000  * -48.99200000  *
  1033       H         60.74400000  *  144.79800000  * -50.77200000  *
  1034       C         62.03600000  *  143.32400000  * -49.85900000  *
  1035       H         62.67100000  *  143.24000000  * -48.98800000  *
  1036       C         61.00200000  *  142.26000000  * -49.77100000  *
  1037       H         60.24600000  *  142.42800000  * -50.53400000  *
  1038       H         61.44700000  *  141.27100000  * -49.89000000  *
  1039       H         60.52000000  *  142.31900000  * -48.79800000  *
  1040       C         62.89500000  *  143.12600000  * -51.08400000  *
  1041       H         63.82900000  *  143.66800000  * -50.95600000  *
  1042       H         63.12900000  *  142.06900000  * -51.20900000  *
  1043       H         62.39300000  *  143.49200000  * -51.96600000  *
  1044       C         61.76300000  *  147.21800000  * -49.95200000  *
  1045       O         61.15000000  *  147.60200000  * -48.96600000  *
  1046       N         61.89300000  *  147.98200000  * -51.02900000  *
  1047       H         62.38500000  *  147.60800000  * -51.83500000  *
  1048       C         61.43800000  *  149.37000000  * -51.07000000  *
  1049       H         61.06500000  *  149.68100000  * -50.09600000  *
  1050       C         62.59500000  *  150.28500000  * -51.44600000  *
  1051       H         62.92600000  *  150.03200000  * -52.45400000  *
  1052       H         62.21600000  *  151.30500000  * -51.44400000  *
  1053       C         63.79400000  *  150.20000000  * -50.50100000  *
  1054       H         64.24000000  *  149.20900000  * -50.55700000  *
  1055       C         64.79600000  *  151.22800000  * -50.98600000  *
  1056       H         64.44800000  *  152.22000000  * -50.71300000  *
  1057       H         65.76300000  *  151.02200000  * -50.53800000  *
  1058       H         64.90000000  *  151.19600000  * -52.06500000  *
  1059       C         63.43600000  *  150.50600000  * -49.04800000  *
  1060       H         62.84000000  *  149.69000000  * -48.64700000  *
  1061       H         64.33800000  *  150.58400000  * -48.44800000  *
  1062       H         62.87100000  *  151.43700000  * -48.98300000  *
  1063       C         60.31000000  *  149.54700000  * -52.06100000  *
  1064       O         60.39700000  *  149.07700000  * -53.18200000  *
  1065       N         59.26800000  *  150.25600000  * -51.67700000  *
  1066       H         59.36500000  *  150.76300000  * -50.80000000  *
  1067       C         58.08300000  *  150.44700000  * -52.50800000  *
  1068       H         58.17300000  *  149.92400000  * -53.45700000  *
  1069       C         56.81900000  *  149.90600000  * -51.78600000  *
  1070       H         55.94300000  *  150.08700000  * -52.41500000  *
  1071       C         56.95000000  *  148.40400000  * -51.54300000  *
  1072       H         57.75300000  *  148.18300000  * -50.83300000  *
  1073       H         56.01300000  *  148.00400000  * -51.15200000  *
  1074       H         57.15800000  *  147.91500000  * -52.48900000  *
  1075       C         56.64700000  *  150.60600000  * -50.43300000  *
  1076       H         57.48200000  *  150.38000000  * -49.77500000  *
  1077       H         56.60500000  *  151.68300000  * -50.57600000  *
  1078       C         55.37000000  *  150.22200000  * -49.68600000  *
  1079       H         55.48900000  *  149.24800000  * -49.22200000  *
  1080       H         55.17000000  *  150.96500000  * -48.91000000  *
  1081       H         54.52900000  *  150.16800000  * -50.38500000  *
  1082       C         57.87200000  *  151.93000000  * -52.81700000  *
  1083       O         58.38200000  *  152.79400000  * -52.10000000  *
  1084       N         57.14900000  *  152.22000000  * -53.89700000  *
  1085       H         56.70500000  *  151.48200000  * -54.43300000  *
  1086       C         56.84100000  *  153.60200000  * -54.22700000  *
  1087       H         57.16800000  *  154.27800000  * -53.43100000  *
  1088       C         57.50400000  *  154.05300000  * -55.54100000  *
  1089       H         57.21800000  *  155.07000000  * -55.80500000  *
  1090       H         58.58200000  *  154.04400000  * -55.38800000  *
  1091       C         57.19300000  *  153.14600000  * -56.70100000  *
  1092       O         56.13500000  *  152.53500000  * -56.76400000  *
  1093       N         58.11500000  *  153.07200000  * -57.64100000  *
  1094       H         57.83300000  *  152.61700000  * -58.48600000  *
  1095       H         58.88600000  *  153.71500000  * -57.62100000  *
  1096       C         55.33100000  *  153.75800000  * -54.32100000  *
  1097       O         54.57600000  *  152.79900000  * -54.11400000  *
  1098       N         54.88500000  *  154.97100000  * -54.62100000  *
  1099       H         55.52100000  *  155.73600000  * -54.79200000  *
  1100       C         53.46400000  *  155.24700000  * -54.72300000  *
  1101       H         52.92700000  *  154.82600000  * -53.87200000  *
  1102       C         53.20900000  *  156.78000000  * -54.75500000  *
  1103       H         52.16900000  *  156.98000000  * -55.02600000  *
  1104       C         53.47800000  *  157.39700000  * -53.41000000  *
  1105       H         54.52100000  *  157.25500000  * -53.13000000  *
[...]
 1005  H   0.85477
 1006  C   1.06768   0.81635   0.74501   0.79627
 1007  O   1.88286   1.35870   1.53027   1.81362
 1008  N   1.52735   1.33090   1.47073   1.30358
 1009  H   0.66629
 1010  H   0.69437
 1011  C   1.08334   0.76731   0.79274   0.82075
 1012  O   1.88935   1.62206   1.28431   1.70794
 1013  N   1.55238   1.52429   1.20176   1.30492
 1014  H   0.67333
 1015  C   1.07092   0.94297   1.09424   0.81967
 1016  H   0.80286
 1017  C   1.07004   1.05501   1.09029   1.16019
 1018  H   0.83600
 1019  H   0.80635
 1020  C   1.06089   0.81082   0.77950   0.77194
 1021  O   1.88094   1.75437   1.37388   1.58280
 1022  N   1.53324   1.31336   1.19634   1.60173
 1023  H   0.66576
 1024  H   0.65899
 1025  C   1.09056   0.78495   0.71197   0.85300
 1026  O   1.87751   1.77115   1.62519   1.39067
 1027  N   1.54093   1.12656   1.65870   1.18426
 1028  H   0.64969
 1029  C   1.06949   0.96906   0.98306   0.97387
 1030  H   0.81510
 1031  C   1.06729   1.06554   0.99398   1.17584
 1032  H   0.83277
 1033  H   0.84874
 1034  C   1.04098   1.01078   0.95036   1.05995
 1035  H   0.85393
 1036  C   1.04882   1.12525   1.11267   1.17373
 1037  H   0.84839
 1038  H   0.85727
 1039  H   0.86080
 1040  C   1.05135   1.14416   1.16473   1.10177
 1041  H   0.84333
 1042  H   0.86456
 1043  H   0.85157
 1044  C   1.07593   0.75395   0.84253   0.75937
 1045  O   1.87365   1.52660   1.79155   1.43781
 1046  N   1.54544   1.55927   1.17441   1.24738
 1047  H   0.64962
 1048  C   1.06411   0.98539   0.82638   1.10548
 1049  H   0.80775
 1050  C   1.06397   1.02788   1.10885   1.11804
 1051  H   0.85132
 1052  H   0.84038
 1053  C   1.04811   0.96828   1.06508   0.97570
 1054  H   0.86842
 1055  C   1.05341   1.12437   1.13640   1.15686
 1056  H   0.84448
 1057  H   0.86076
 1058  H   0.86163
 1059  C   1.05483   1.17876   1.17982   1.03825
 1060  H   0.83556
 1061  H   0.85013
 1062  H   0.84489
 1063  C   1.07318   0.80073   0.74408   0.81450
 1064  O   1.86692   1.83543   1.63211   1.35025
 1065  N   1.54107   1.19209   1.46018   1.29831
 1066  H   0.63950
 1067  C   1.07634   0.89376   1.00470   1.04062
 1068  H   0.81416
 1069  C   1.06493   1.01329   0.99097   1.02340
 1070  H   0.84051
 1071  C   1.05435   1.18015   1.03698   1.17296
 1072  H   0.84471
 1073  H   0.84621
 1074  H   0.85570
 1075  C   1.05410   1.07460   1.11906   1.02970
 1076  H   0.84499
 1077  H   0.86138
 1078  C   1.05245   1.08475   1.16076   1.13229
 1079  H   0.84696
 1080  H   0.87378
 1081  H   0.84785
 1082  C   1.08636   0.74076   0.88715   0.74157
 1083  O   1.88670   1.57134   1.57776   1.55541
 1084  N   1.54328   1.50638   1.14321   1.34022
 1085  H   0.63955
 1086  C   1.06137   0.99362   0.88635   1.01739
 1087  H   0.80159
 1088  C   1.07074   1.17408   1.11067   1.04180
 1089  H   0.83232
 1090  H   0.81861
 1091  C   1.06806   0.77724   0.79167   0.82181
 1092  O   1.88768   1.30781   1.50664   1.80341
 1093  N   1.53720   1.31303   1.52269   1.28001
 1094  H   0.69359
 1095  H   0.69548
 1096  C   1.08049   0.88411   0.77618   0.74893
 1097  O   1.89429   1.62536   1.43553   1.52863
 1098  N   1.54114   1.14429   1.19579   1.69361
 1099  H   0.67735
 1100  C   1.08514   0.83381   1.03898   1.09458
 1101  H   0.80874
 1102  C   1.08457   0.98571   0.88400   0.88806
 1103  H   0.85745
 1104  C   1.05317   1.18590   1.17280   1.05524
 1105  H   0.83985
 1106  H   0.83208
 1107  H   0.83210
 1108  O   1.85119   1.58276   1.82156   1.32381
 1109  H   0.67473
 1110  C   1.07500   0.81040   0.76999   0.81962
 1111  O   1.88599   1.23161   1.61599   1.81386
 1112  N   1.53452   1.18265   1.58199   1.22149
 1113  H   0.69080
 1114  C   1.05381   1.13257   1.14014   0.88773
 1115  H   0.84113
 1116  H   0.87213
 1117  H   0.83512
 1118  H   0.86779
 1119  C   1.10017   0.76488   0.75359   0.92063
 1120  O   1.88719   1.66981   1.57164   1.45683
 1121  N   1.54655   1.44426   1.35133   1.20824
 1122  H   0.67430
 1123  C   1.08034   0.92905   1.08606   0.92409
 1124  H   0.80935
 1125  C   1.07312   1.07891   0.95432   0.98266
 1126  H   0.84439
 1127  C   1.05753   1.18807   1.08040   1.12366
 1128  H   0.83784
 1129  H   0.85390
 1130  H   0.85844
 1131  C   1.05398   1.07451   1.13505   1.01849
 1132  H   0.85599
 1133  H   0.85265
 1134  C   1.04892   1.14430   1.14764   1.09032
 1135  H   0.85584
 1136  H   0.85949
 1137  H   0.84922
 1138  C   1.07516   0.84264   0.74885   0.79205
 1139  O   1.88224   1.88209   1.48242   1.36317
 1140  N   1.54675   1.09778   1.54222   1.34295
 1141  H   0.63132
 1142  C   1.06850   0.85020   1.04225   1.03913
 1143  H   0.81380
 1144  C   1.05972   1.08883   1.05696   1.08958
 1145  H   0.83303
 1146  H   0.84618
 1147  C   1.05092   1.08864   1.03274   1.08361
 1148  H   0.85874
 1149  H   0.83972
 1150  C   1.06120   1.07589   1.05793   1.09675
 1151  H   0.82437
 1152  H   0.82616
 1153  C   1.08158   1.03065   0.99350   1.07591
 1154  H   0.83574
 1155  H   0.82750
 1156  N   1.46388   1.23155   1.24339   1.25616
 1157  H   0.66581
 1158  H   0.69469
 1159  H   0.73047
 1160  C   1.07960   0.77839   0.75107   0.82875
 1161  O   1.88193   1.76753   1.68878   1.28797
 1162  N   1.54484   1.33067   1.42926   1.22898
 1163  H   0.64226
 1164  C   1.06987   0.91866   0.95602   1.02984
 1165  H   0.83111
 1166  C   1.06261   1.09807   1.02039   1.13366
 1167  H   0.83453
 1168  H   0.84790
 1169  C   1.05389   1.07584   0.96023   0.95839
 1170  H   0.85432
 1171  C   1.06150   1.15500   1.13916   1.09666
 1172  H   0.86241
 1173  H   0.85277
 1174  H   0.84805
 1175  C   1.05712   1.17435   1.13646   1.09476
 1176  H   0.85047
 1177  H   0.85398
 1178  H   0.86036
 1179  C   1.08628   0.79165   0.80010   0.75808
 1180  O   1.88130   1.63220   1.59727   1.53616
 1181  N   1.54424   1.36942   1.43691   1.16164
 1182  H   0.64227
 1183  C   1.06712   0.91568   0.93015   1.04609
 1184  H   0.83210
 1185  C   1.05912   1.16086   1.07876   1.16093
 1186  H   0.81478
 1187  H   0.85411
 1188  H   0.82128
 1189  C   1.08943   0.78544   0.78727   0.74570
 1190  O   1.87338   1.83942   1.35647   1.58069
 1191  N   1.54786   1.17629   1.32381   1.50225
 1192  H   0.68742
 1193  C   1.07553   0.87117   1.07853   0.94099
 1194  H   0.82411
 1195  C   1.08000   1.14550   1.18804   0.99662
 1196  H   0.80896
 1197  H   0.82589
 1198  C   1.07097   0.73711   0.71600   0.70397
 1199  O   1.88700   1.80679   1.47314   1.54656
 1200  O   1.86980   1.66056   1.53943   1.81569
 1201  C   1.09035   0.81937   0.79579   0.74774
 1202  O   1.88758   1.28002   1.80846   1.56138
 1203  N   1.56694   1.29440   1.16813   1.54490
 1204  H   0.67907
 1205  C   1.07943   1.01632   0.91846   0.95420
 1206  H   0.84101
 1207  C   1.05583   1.08011   1.20374   0.95959
 1208  H   0.81432
 1209  H   0.81800
 1210  C   1.07377   0.97107   0.97764   0.97062
 1211  C   1.08858   1.03615   1.04197   1.01367
 1212  H   0.84240
 1213  C   1.08463   0.99231   1.05626   1.01753
 1214  H   0.85937
 1215  C   1.08692   1.05795   0.99232   1.02849
 1216  H   0.84956
 1217  C   1.08967   1.03700   1.03372   0.98383
 1218  H   0.83048
 1219  C   1.08702   0.98523   1.05957   1.01978
 1220  H   0.84214
 1221  C   1.09123   0.80365   0.77384   0.76187
 1222  O   1.88503   1.44610   1.56368   1.71384
 1223  N   1.53992   1.41503   1.43701   1.13652
 1224  H   0.68184
 1225  C   1.06917   0.98122   1.07295   0.98627
 1226  H   0.80751
 1227  H   0.80219
 1228  C   1.08082   0.82933   0.77332   0.69642
 1229  O   1.87552   1.84449   1.33233   1.62354
 1230  N   1.55787   1.29721   1.23642   1.44528
 1231  H   0.66846
 1232  C   1.07762   0.89921   1.03827   0.96463
 1233  H   0.84607
 1234  C   1.06839   1.11287   0.94539   1.17876
 1235  H   0.83279
 1236  H   0.83363
 1237  C   1.05191   1.03059   0.96241   1.01010
 1238  H   0.86140
 1239  C   1.05584   1.16876   1.06495   1.16393
 1240  H   0.85686
 1241  H   0.84259
 1242  H   0.85566
 1243  C   1.05581   1.17288   1.18937   1.04558
 1244  H   0.84452
 1245  H   0.83523
 1246  H   0.86016
 1247  C   1.09754   0.86706   0.76999   0.74284
 1248  O   1.88393   1.31056   1.77553   1.56629
 1249  N   1.58471   1.28170   1.24019   1.52969
 1250  H   0.66422
 1251  C   1.06979   0.96067   0.99061   0.96068
 1252  H   0.82557
 1253  C   1.05737   1.14312   1.09944   1.16303
 1254  H   0.86438
 1255  H   0.82011
 1256  H   0.81180
 1257  C   1.07846   0.84916   0.77012   0.78399
 1258  O   1.89129   1.45618   1.52716   1.62135
 1259  N   1.54612   1.31378   1.54408   1.15298
 1260  H   0.70170
 1261  C   1.06032   0.93039   1.14801   1.09028
 1262  H   0.81684
 1263  H   0.85519
 1264  H   0.84416
 1265  H   0.88472
 1266  C   1.09735   0.75857   0.82382   0.86996
 1267  O   1.89049   1.46956   1.31197   1.86336
 1268  N   1.54403   1.50217   1.35469   1.15134
 1269  H   0.69059
 1270  C   1.07228   1.10734   0.96346   0.82296
 1271  H   0.80385
 1272  C   1.05753   1.09437   1.03335   1.14024
 1273  H   0.84542
 1274  H   0.83334
 1275  C   1.06470   0.97683   0.94823   0.96799
 1276  C   1.08157   1.01297   0.99092   1.05620
 1277  H   0.84736
 1278  C   1.08049   1.03435   1.02440   0.99475
 1279  H   0.85488
 1280  C   1.07839   1.00776   1.05287   1.02434
 1281  H   0.86074
 1282  C   1.07789   1.02522   1.00554   1.04988
 1283  H   0.86374
 1284  C   1.08014   1.06138   1.02644   1.00049
 1285  H   0.84891
 1286  C   1.08318   0.77309   0.80321   0.81751
 1287  O   1.89079   1.50328   1.62914   1.48152
 1288  N   1.53927   1.18108   1.36138   1.44787
 1289  H   0.68125
 1290  C   1.05535   1.12999   0.97706   0.99551
 1291  H   0.83671
 1292  H   0.79679
 1293  C   1.07828   0.78888   0.75731   0.80298
 1294  O   1.87775   1.54086   1.38136   1.84205
 1295  N   1.53658   1.41047   1.37513   1.18588
 1296  H   0.67107
 1297  C   1.07355   1.00519   1.18379   0.89227
 1298  H   0.81945
 1299  H   0.81477
 1300  C   1.07911   0.79702   0.76133   0.81356
 1301  O   1.89023   1.46280   1.49067   1.68790
 1302  N   1.56515   1.46232   1.16810   1.27093
 1303  C   1.06801   1.06484   0.87392   1.05021
 1304  H   0.84514
 1305  H   0.85346
 1306  C   1.05746   1.03688   1.14012   1.06192
 1307  H   0.83816
 1308  H   0.80142
 1309  C   1.05940   1.09269   0.99391   1.15206
 1310  H   0.85769
 1311  H   0.83301
 1312  C   1.07062   1.04451   0.98656   0.88080
 1313  H   0.83354
 1314  C   1.09105   0.79123   0.79466   0.82253
 1315  O   1.89226   1.35917   1.36133   1.85860
 1316  N   1.54606   1.41356   1.50917   1.12663
 1317  H   0.68440
 1318  C   1.07863   1.04447   1.12159   0.88142
 1319  H   0.80273
 1320  H   0.82102
 1321  C   1.08605   0.82895   0.73303   0.78206
 1322  O   1.88603   1.69499   1.71548   1.32099
 1323  N   1.55278   1.23515   1.41511   1.34500
 1324  H   0.68928
 1325  C   1.07643   0.85802   1.06003   0.98301
 1326  H   0.82261
 1327  C   1.05904   1.17687   1.07705   0.96480
 1328  H   0.84756
 1329  H   0.82248
 1330  C   1.05758   1.11784   1.05738   1.05043
 1331  H   0.83354
 1332  H   0.87464
 1333  C   1.06929   1.10888   1.11907   0.74628
 1334  H   0.83611
 1335  H   0.80758
 1336  N   1.53392   1.59305   1.27316   1.10589
 1337  H   0.67026
 1338  C   0.97633   0.84035   0.80648   0.79178
 1339  N   1.49890   1.55655   1.25217   1.24771
 1340  H   0.64608
 1341  H   0.65715
 1342  N   1.50165   1.59026   1.35399   1.14262
 1343  H   0.66376
 1344  H   0.65918
 1345  C   1.08033   0.77745   0.78192   0.84595
 1346  O   1.89144   1.44924   1.63078   1.54517
 1347  N   1.54328   1.55327   1.19494   1.24283
 1348  H   0.68979
 1349  C   1.09124   1.00808   1.01046   0.91034
 1350  H   0.80044
 1351  C   1.08409   0.92142   0.92459   0.88501
 1352  H   0.85309
 1353  C   1.05833   1.10858   1.12663   1.19934
 1354  H   0.82604
 1355  H   0.82777
 1356  H   0.84142
 1357  O   1.84249   1.59407   1.64152   1.56220
 1358  H   0.60937
 1359  C   1.07957   0.81466   0.79713   0.76956
 1360  O   1.88848   1.52754   1.79132   1.36231
 1361  N   1.55437   1.33140   1.29568   1.37765
 1362  H   0.64909
 1363  C   1.07353   0.97546   0.92470   1.00679
 1364  H   0.83193
 1365  C   1.05681   1.09272   1.06705   1.08505
 1366  H   0.85323
 1367  H   0.83493
 1368  C   1.05810   0.97012   0.97358   1.08086
 1369  C   1.08221   0.97517   1.07670   1.00155
 1370  H   0.85036
 1371  C   1.08763   1.08514   0.99756   0.98992
 1372  H   0.79597
 1373  C   1.06889   0.83260   0.89505   0.87147
 1374  O   1.84106   1.46354   1.54405   1.69848
 1375  H   0.60411
 1376  C   1.07159   0.99523   1.09227   1.08192
 1377  H   0.85434
 1378  C   1.07696   1.05316   1.00377   1.02460
 1379  H   0.87657
 1380  C   1.08192   0.79302   0.75830   0.82361
 1381  O   1.88960   1.35955   1.51333   1.81055
 1382  N   1.55300   1.20462   1.61346   1.14999
 1383  H   0.65932
 1384  C   1.08607   1.09430   1.05550   0.83676
 1385  H   0.84991
 1386  C   1.08037   0.85356   0.86898   1.00749
 1387  H   0.87701
 1388  C   1.05615   1.09531   1.13721   1.18950
 1389  H   0.83228
 1390  H   0.85517
 1391  H   0.85278
 1392  O   1.84992   1.30830   1.76143   1.64746
 1393  H   0.59975
 1394  C   1.08843   0.86105   0.77054   0.80779
 1395  O   1.89632   1.23780   1.65283   1.60090
 1396  N   1.54728   1.20483   1.30468   1.51975
 1397  H   0.69385
 1398  C   1.06720   1.01846   1.01445   1.05321
 1399  H   0.88142
 1400  H   0.84484
 1401  C   1.06977   0.85197   0.75622   0.78789
 1402  O   1.89318   1.66790   1.37939   1.51063
 1403  N   1.55718   1.14796   1.53557   1.33796
 1404  H   0.68905
 1405  C   1.07200   0.82333   0.97418   1.14057
 1406  H   0.83290
 1407  C   1.05676   1.16626   1.00963   1.02755
 1408  H   0.84712
 1409  H   0.83100
 1410  C   1.06018   1.20421   0.98293   1.16294
 1411  H   0.83474
 1412  H   0.83484
 1413  C   1.06252   0.73971   0.72290   0.73382
 1414  O   1.89247   1.43217   1.79923   1.60785
 1415  O   1.88388   1.53343   1.58104   1.81690
 1416  C   1.09479   0.76529   0.86735   0.74702
 1417  O   1.88702   1.65367   1.65699   1.40265
 1418  N   1.54803   1.31571   1.19235   1.48980
 1419  H   0.67132
 1420  C   1.07027   1.04655   0.86919   1.02918
 1421  H   0.87143
 1422  C   1.05523   1.03114   1.04117   0.95605
 1423  H   0.82527
 1424  C   1.05491   1.16618   1.03652   1.20499
 1425  H   0.86092
 1426  H   0.84196
 1427  H   0.82116
 1428  C   1.05351   1.16804   1.15501   1.07888
 1429  H   0.85342
 1430  H   0.83978
 1431  H   0.87263
 1432  C   1.07378   0.79230   0.74875   0.84330
 1433  O   1.88967   1.32270   1.58745   1.74415
 1434  N   1.53877   1.27312   1.49287   1.21314
 1435  H   0.68153
 1436  C   1.07444   1.00942   1.04594   0.86600
 1437  H   0.84279
 1438  C   1.06138   1.03019   1.01674   0.98016
 1439  H   0.83863
 1440  C   1.05313   1.18243   1.10079   1.10930
 1441  H   0.83361
 1442  H   0.84892
 1443  H   0.86537
 1444  C   1.05651   1.19182   1.16280   1.04329
 1445  H   0.86036
 1446  H   0.83704
 1447  H   0.83039
 1448  C   1.08290   0.80951   0.79869   0.76222
 1449  O   1.88748   1.79481   1.44259   1.43265
 1450  N   1.53613   1.24354   1.43833   1.31514
 1451  H   0.68516
 1452  C   1.07801   0.90300   0.96842   1.14055
 1453  H   0.81626
 1454  C   1.07871   0.93228   0.84208   0.98907
 1455  H   0.87354
 1456  C   1.05580   1.09963   1.13379   1.18174
 1457  H   0.84021
 1458  H   0.82863
 1459  H   0.84524
 1460  O   1.85202   1.45320   1.47110   1.77175
 1461  H   0.66545
 1462  C   1.07519   0.76604   0.82443   0.81392
 1463  O   1.88678   1.45218   1.86773   1.32173
 1464  N   1.53704   1.58454   1.12343   1.28791
 1465  H   0.68734
 1466  C   1.05225   1.16022   0.87598   1.13284
 1467  H   0.82172
 1468  H   0.85349
 1469  H   0.86623
 1470  H   0.86961
 1471  C   1.10168   0.76419   0.81178   0.89545
 1472  O   1.88719   1.42750   1.33464   1.87143
 1473  N   1.55040   1.52611   1.36324   1.14176
 1474  H   0.68727
 1475  C   1.07792   1.09049   1.02965   0.79362
 1476  H   0.81269
 1477  C   1.05937   1.13171   1.00676   1.09918
 1478  H   0.81542
 1479  H   0.82645
 1480  C   1.06836   0.97632   0.98725   0.99779
 1481  C   1.08108   0.99045   1.01956   1.00396
 1482  H   0.84542
 1483  C   1.07574   1.10244   1.04739   1.06473
 1484  H   0.82518
 1485  C   1.07247   0.88864   0.88828   0.88314
 1486  O   1.84176   1.33097   1.60091   1.72842
 1487  H   0.65395
 1488  C   1.07525   0.98864   1.10184   1.09838
 1489  H   0.83473
 1490  C   1.08716   1.07417   0.98141   0.97213
 1491  H   0.84079
 1492  C   1.08199   0.80328   0.78090   0.81052
 1493  O   1.89298   1.77874   1.64260   1.23661
 1494  N   1.53511   1.26486   1.54069   1.17725
 1495  H   0.69022
 1496  C   1.05806   0.92148   1.08517   1.15573
 1497  H   0.83210
 1498  H   0.85593
 1499  H   0.85023
 1500  H   0.86594
 1501  C   1.10297   0.82981   0.87807   0.75944
 1502  O   1.89043   1.34348   1.83482   1.42340
 1503  N   1.55422   1.37694   1.20571   1.47148
 1504  H   0.69155
 1505  C   1.07914   0.97660   0.84380   1.12474
 1506  H   0.81513
 1507  C   1.05897   0.98040   1.00852   1.06736
 1508  H   0.86931
 1509  C   1.05192   1.15812   1.05409   1.18179
 1510  H   0.83709
 1511  H   0.85318
 1512  H   0.83582
 1513  C   1.04805   1.00408   1.12232   1.09025
 1514  H   0.86276
 1515  H   0.86409
 1516  C   1.04891   1.11930   1.13509   1.13913
 1517  H   0.85396
 1518  H   0.85510
 1519  H   0.85414
 1520  C   1.07240   0.86790   0.76276   0.76286
 1521  O   1.88565   1.52995   1.48957   1.60563
 1522  N   1.54256   1.16441   1.44796   1.40497
 1523  H   0.70095
 1524  C   1.06817   0.88834   1.14590   1.09859
 1525  H   0.85017
 1526  H   0.86148
 1527  H   0.82827
 1528  H   0.86166
 1529  C   1.10302   0.85220   0.75669   0.84822
 1530  O   1.89239   1.78039   1.57478   1.31068
 1531  N   1.53867   1.27074   1.41787   1.30153
 1532  H   0.68208
 1533  C   1.05782   0.87965   1.04769   1.01943
 1534  H   0.82176
 1535  C   1.06047   1.03618   1.11733   1.10572
 1536  H   0.84161
 1537  H   0.84440
 1538  C   1.04469   0.99069   0.96505   1.06030
 1539  H   0.87850
 1540  C   1.05423   1.16024   1.06641   1.18083
 1541  H   0.84456
 1542  H   0.84606
 1543  H   0.85108
 1544  C   1.05248   1.12473   1.16914   1.10973
 1545  H   0.86050
 1546  H   0.84674
 1547  H   0.84058
 1548  C   1.07990   0.74563   0.87725   0.77791
 1549  O   1.88738   1.52433   1.42217   1.71291
 1550  N   1.54029   1.59577   1.20295   1.20233
 1551  H   0.67746
 1552  C   1.06927   1.04633   0.93830   0.93175
 1553  H   0.81960
 1554  C   1.05599   1.16628   1.05797   1.01476
 1555  H   0.83626
 1556  H   0.83263
 1557  C   1.05723   1.12885   1.10458   1.02194
 1558  H   0.83894
 1559  H   0.82589
 1560  C   1.06726   1.16535   0.93417   0.90770
 1561  H   0.82113
 1562  H   0.83848
 1563  N   1.52346   1.14375   1.42365   1.39857
 1564  H   0.66807
 1565  C   0.99023   0.79802   0.80720   0.81336
 1566  N   1.51430   1.10531   1.46072   1.48273
 1567  H   0.64435
 1568  H   0.65859
 1569  N   1.50490   1.23268   1.41731   1.43011
 1570  H   0.66102
 1571  H   0.65713
 1572  C   1.07526   0.86261   0.79044   0.77589
 1573  O   1.88909   1.59329   1.59428   1.52194
 1574  N   1.53732   1.18868   1.25305   1.49347
 1575  H   0.67810
 1576  C   1.08127   0.82501   1.13645   1.03990
 1577  H   0.82557
 1578  C   1.06000   1.15919   1.08144   1.00144
 1579  H   0.84419
 1580  H   0.84905
 1581  C   1.04868   1.08003   0.97230   0.94486
 1582  H   0.87009
 1583  C   1.05533   1.15693   1.15753   1.09309
 1584  H   0.87031
 1585  H   0.86688
 1586  H   0.85319
 1587  C   1.05673   1.16334   1.09239   1.15438
 1588  H   0.84456
 1589  H   0.87043
 1590  H   0.84297
 1591  C   1.07429   0.75909   0.76239   0.73158
 1592  O   1.88873   1.43219   1.84359   1.57878
 1593  O   1.89200   1.52742   1.54864   1.77923

 **********************
 *                    *
 * JOB ENDED NORMALLY *
 *                    *
 **********************



 TOTAL JOB TIME:          2333.54 SECONDS

 == MOPAC DONE ==
