 *******************************************************************************
 **                                                                           **
 **                              MOPAC v23.2.2                                **
 **                                                                           **
 *******************************************************************************
 **          Digital Object Identifier (DOI): 10.5281/zenodo.6511958          **
 **    Visit the DOI location for information on how to cite this program.    **
 *******************************************************************************

                              PM7 CALCULATION RESULTS

 *******************************************************************************
 *  CALCULATION DONE: (MAX THREADS = 24)             Thu Jan 22 17:20:59 2026  *
 *  PM7        - The PM7 Hamiltonian to be used
 *
 *
 *
 *                 CHARGE ON SYSTEM = +2
 *
 *
 *
 *  EPS=1      - USE ANDREAS KLAMT'S COSMO IMPLICIT SOLVATION MODEL
 *  XYZ        - CARTESIAN COORDINATE SYSTEM TO BE USED
 *  1SCF       - DO 1 SCF AND THEN STOP 
 *  T=         - A TIME OF 172800.0 SECONDS REQUESTED
 *  DUMP=N     - RESTART FILE WRITTEN EVERY 7200.0 SECONDS REQUESTED
 *******************************************************************************
PM7 1SCF XYZ CHARGE=2 EPS=1


   ATOM   CHEMICAL          X               Y               Z
  NUMBER   SYMBOL      (ANGSTROMS)     (ANGSTROMS)     (ANGSTROMS)

     1       H         71.69100000  *  165.23700000  * -45.36000000  *
     2       C         70.72700000  *  165.64400000  * -45.02500000  *
     3       O         70.67100000  *  166.69300000  * -44.40000000  *
     4       N         69.64800000  *  164.94600000  * -45.35400000  *
     5       H         69.74300000  *  164.08600000  * -45.86500000  *
     6       C         68.31800000  *  165.37700000  * -44.95100000  *
     7       H         68.30400000  *  166.44500000  * -44.75000000  *
     8       C         67.27900000  *  165.08100000  * -46.05800000  *
     9       H         67.27200000  *  164.02200000  * -46.29800000  *
    10       C         65.89200000  *  165.46600000  * -45.59200000  *
    11       H         65.46400000  *  166.22900000  * -46.24500000  *
    12       H         65.23700000  *  164.60600000  * -45.62700000  *
    13       H         65.87600000  *  165.89500000  * -44.58400000  *
    14       C         67.63700000  *  165.85600000  * -47.31700000  *
    15       H         68.59400000  *  165.52900000  * -47.70800000  *
    16       H         66.87900000  *  165.66900000  * -48.07700000  *
    17       H         67.68800000  *  166.92100000  * -47.10100000  *
    18       C         67.91500000  *  164.66400000  * -43.65700000  *
    19       O         67.55300000  *  165.30600000  * -42.67600000  *
    20       N         67.98400000  *  163.33800000  * -43.65800000  *
    21       H         68.28400000  *  162.85200000  * -44.48600000  *
    22       C         67.62300000  *  162.54400000  * -42.48700000  *
    23       H         67.90600000  *  163.07600000  * -41.58100000  *
    24       C         66.12800000  *  162.23500000  * -42.45900000  *
    25       H         65.92600000  *  161.47400000  * -43.20900000  *
    26       H         65.88500000  *  161.80700000  * -41.48800000  *
    27       C         65.21300000  *  163.39800000  * -42.74000000  *
    28       H         65.33100000  *  164.15700000  * -41.96400000  *
    29       H         65.45900000  *  163.81400000  * -43.69700000  *
    30       C         63.76600000  *  162.97200000  * -42.82400000  *
    31       O         63.44700000  *  162.11400000  * -43.67900000  *
    32       O         62.94800000  *  163.49400000  * -42.03400000  *
    33       C         68.34700000  *  161.22200000  * -42.57700000  *
    34       O         68.73000000  *  160.78800000  * -43.66100000  *
    35       N         68.52400000  *  160.57500000  * -41.43500000  *
    36       H         68.03000000  *  160.89100000  * -40.60600000  *
    37       C         69.17300000  *  159.28200000  * -41.42100000  *
    38       H         69.95100000  *  159.22100000  * -42.17800000  *
    39       C         69.75600000  *  159.01000000  * -40.03200000  *
    40       H         70.21900000  *  159.94300000  * -39.71800000  *
    41       H         68.96300000  *  158.79100000  * -39.31600000  *
    42       C         70.79800000  *  157.89600000  * -39.98300000  *
    43       H         70.31100000  *  156.94100000  * -40.17400000  *
    44       H         71.53800000  *  158.07300000  * -40.76900000  *
    45       C         71.50100000  *  157.83200000  * -38.61800000  *
    46       H         70.74900000  *  157.59000000  * -37.86000000  *
    47       H         72.23100000  *  157.01800000  * -38.63800000  *
    48       C         72.18600000  *  159.16200000  * -38.26900000  *
    49       H         72.83200000  *  159.42500000  * -39.10900000  *
    50       H         71.41200000  *  159.93100000  * -38.15600000  *
    51       N         73.00000000  *  159.10500000  * -37.02500000  *
    52       H         73.70000000  *  158.37000000  * -37.07400000  *
    53       H         73.43800000  *  159.98800000  * -36.79300000  *
    54       H         72.39100000  *  158.85400000  * -36.25100000  *
    55       C         68.06200000  *  158.28700000  * -41.74800000  *
    56       O         67.16300000  *  158.08100000  * -40.94600000  *
    57       N         68.04600000  *  157.72900000  * -42.96400000  *
    58       H         68.85100000  *  157.88100000  * -43.55200000  *
    59       C         67.03400000  *  156.74500000  * -43.40800000  *
    60       H         66.05800000  *  157.23200000  * -43.42200000  *
    61       C         67.33600000  *  156.22600000  * -44.83500000  *
    62       H         68.41300000  *  156.12100000  * -44.94700000  *
    63       C         66.69500000  *  154.86100000  * -45.13100000  *
    64       H         65.61900000  *  154.90800000  * -44.95700000  *
    65       H         66.87600000  *  154.58800000  * -46.16200000  *
    66       H         67.13300000  *  154.07500000  * -44.51600000  *
    67       C         66.83200000  *  157.25400000  * -45.86000000  *
    68       H         65.74100000  *  157.24300000  * -45.88700000  *
    69       H         67.14300000  *  158.23300000  * -45.51400000  *
    70       C         67.37300000  *  157.04600000  * -47.28300000  *
    71       H         66.95800000  *  156.14400000  * -47.72700000  *
    72       H         67.09200000  *  157.89200000  * -47.90700000  *
    73       H         68.45700000  *  156.97000000  * -47.26600000  *
    74       C         66.92500000  *  155.59000000  * -42.41500000  *
    75       O         65.82600000  *  155.22800000  * -41.98900000  *
    76       N         68.06900000  *  155.00300000  * -42.06500000  *
    77       H         68.94400000  *  155.35700000  * -42.43300000  *
    78       C         68.10900000  *  153.82700000  * -41.21600000  *
    79       H         67.64400000  *  154.06400000  * -40.25800000  *
    80       H         67.54200000  *  153.02500000  * -41.69000000  *
    81       C         69.51600000  *  153.32200000  * -40.95100000  *
    82       O         70.51900000  *  153.81800000  * -41.47300000  *
    83       N         69.55700000  *  152.30100000  * -40.11100000  *
    84       H         68.67700000  *  151.93400000  * -39.77300000  *
    85       C         70.76800000  *  151.72100000  * -39.55600000  *
    86       H         71.60900000  *  152.39500000  * -39.72700000  *
    87       C         70.57400000  *  151.57400000  * -38.03800000  *
    88       H         69.73600000  *  150.90400000  * -37.84000000  *
    89       H         71.48100000  *  151.14900000  * -37.63000000  *
    90       C         70.33400000  *  152.92600000  * -37.34200000  *
    91       H         71.16600000  *  153.59300000  * -37.58300000  *
    92       H         69.42200000  *  153.38500000  * -37.73100000  *
    93       C         70.19800000  *  152.78700000  * -35.81800000  *
    94       O         69.31300000  *  152.03700000  * -35.34500000  *
    95       O         70.94200000  *  153.47200000  * -35.07900000  *
    96       C         71.04800000  *  150.40300000  * -40.29200000  *
    97       O         70.39400000  *  149.38500000  * -40.05400000  *
    98       N         71.91800000  *  150.47200000  * -41.30400000  *
    99       H         72.48400000  *  151.30500000  * -41.40600000  *
   100       C         72.00300000  *  149.48100000  * -42.38000000  *
   101       H         70.99300000  *  149.18600000  * -42.66900000  *
   102       H         72.46800000  *  149.95800000  * -43.24200000  *
   103       C         72.79600000  *  148.21100000  * -42.05700000  *
   104       O         73.29100000  *  148.00200000  * -40.95100000  *
   105       N         72.95500000  *  147.36200000  * -43.07600000  *
   106       H         72.49900000  *  147.57200000  * -43.95400000  *
   107       C         73.75900000  *  146.12500000  * -43.03500000  *
   108       H         73.42700000  *  145.51800000  * -42.19200000  *
   109       C         73.56600000  *  145.30400000  * -44.32100000  *
   110       H         74.33300000  *  144.53100000  * -44.38500000  *
   111       C         72.19900000  *  144.63100000  * -44.33400000  *
   112       H         71.40600000  *  145.37900000  * -44.36200000  *
   113       H         72.12500000  *  143.98500000  * -45.20800000  *
   114       H         72.10400000  *  144.00900000  * -43.44500000  *
   115       O         73.66200000  *  146.15200000  * -45.44100000  *
   116       H         73.25200000  *  145.68200000  * -46.20200000  *
   117       C         75.25400000  *  146.36400000  * -42.84200000  *
   118       O         75.86900000  *  145.61300000  * -42.09400000  *
   119       N         75.82600000  *  147.39100000  * -43.48400000  *
   120       H         75.23600000  *  147.89100000  * -44.12900000  *
   121       C         77.28000000  *  147.65600000  * -43.53600000  *
   122       H         77.77500000  *  147.07800000  * -42.75600000  *
   123       C         77.83800000  *  147.18200000  * -44.89300000  *
   124       H         77.49500000  *  147.87000000  * -45.66600000  *
   125       H         78.92800000  *  147.23900000  * -44.86700000  *
   126       C         77.46500000  *  145.76800000  * -45.29200000  *
   127       C         77.74400000  *  144.70000000  * -44.42000000  *
   128       H         78.22900000  *  144.88300000  * -43.47000000  *
   129       C         77.36700000  *  143.39400000  * -44.77000000  *
   130       H         77.56100000  *  142.58200000  * -44.08900000  *
   131       C         76.74100000  *  143.14300000  * -46.00800000  *
   132       O         76.45400000  *  141.86600000  * -46.36400000  *
   133       H         77.06500000  *  141.27100000  * -45.90000000  *
   134       C         76.45900000  *  144.21300000  * -46.88200000  *
   135       H         75.96300000  *  144.02900000  * -47.81900000  *
   136       C         76.82800000  *  145.52300000  * -46.52400000  *
   137       H         76.61700000  *  146.34100000  * -47.19800000  *
   138       C         77.67000000  *  149.12700000  * -43.29100000  *
   139       O         78.78300000  *  149.53400000  * -43.62400000  *
   140       N         76.77000000  *  149.94100000  * -42.73100000  *
   141       H         75.88500000  *  149.55900000  * -42.42900000  *
   142       C         76.99400000  *  151.36900000  * -42.48500000  *
   143       H         77.57800000  *  151.49300000  * -41.57400000  *
   144       H         77.57000000  *  151.78000000  * -43.30400000  *
   145       C         75.69300000  *  152.16100000  * -42.33800000  *
   146       O         74.63100000  *  151.56700000  * -42.12700000  *
   147       N         75.75500000  *  153.49500000  * -42.44900000  *
   148       H         76.58800000  *  153.89400000  * -42.85900000  *
   149       C         74.59200000  *  154.32600000  * -42.21200000  *
   150       H         73.82600000  *  153.78000000  * -41.65800000  *
   151       C         74.95900000  *  155.54800000  * -41.37000000  *
   152       H         75.70700000  *  156.13900000  * -41.89300000  *
   153       C         73.73100000  *  156.40900000  * -41.13300000  *
   154       H         72.94300000  *  155.80300000  * -40.68200000  *
   155       H         73.98600000  *  157.21200000  * -40.45000000  *
   156       H         73.36800000  *  156.84900000  * -42.06500000  *
   157       C         75.54500000  *  155.09600000  * -40.05300000  *
   158       H         76.46000000  *  154.52800000  * -40.19800000  *
   159       H         75.77700000  *  155.95300000  * -39.42300000  *
   160       H         74.80500000  *  154.48400000  * -39.53200000  *
   161       C         74.01900000  *  154.79200000  * -43.53700000  *
   162       O         74.76100000  *  155.18400000  * -44.43700000  *
   163       N         72.69700000  *  154.66100000  * -43.66500000  *
   164       H         72.17200000  *  154.33600000  * -42.86000000  *
   165       C         71.90800000  *  155.09800000  * -44.82000000  *
   166       H         72.55700000  *  155.14300000  * -45.69300000  *
   167       C         70.74900000  *  154.12200000  * -45.12400000  *
   168       H         69.91600000  *  154.33000000  * -44.45300000  *
   169       C         70.27000000  *  154.31900000  * -46.56700000  *
   170       H         71.06300000  *  154.05600000  * -47.26800000  *
   171       H         69.40400000  *  153.68500000  * -46.75700000  *
   172       H         69.98700000  *  155.35600000  * -46.73300000  *
   173       C         71.11000000  *  152.64500000  * -44.93100000  *
   174       H         71.33300000  *  152.44300000  * -43.88300000  *
   175       H         70.25300000  *  152.03200000  * -45.20800000  *
   176       H         71.96800000  *  152.38200000  * -45.54600000  *
   177       C         71.34800000  *  156.49000000  * -44.53600000  *
   178       O         70.62000000  *  156.65000000  * -43.55200000  *
   179       N         71.62500000  *  157.49000000  * -45.37400000  *
   180       H         72.23900000  *  157.32200000  * -46.16900000  *
   181       C         71.01800000  *  158.79600000  * -45.21900000  *
   182       H         70.37900000  *  158.84300000  * -44.33800000  *
   183       C         72.10000000  *  159.86100000  * -45.06900000  *
   184       H         72.79900000  *  159.78100000  * -45.90500000  *
   185       H         71.63400000  *  160.84400000  * -45.14300000  *
   186       C         72.87100000  *  159.84300000  * -43.76800000  *
   187       C         72.34700000  *  160.43100000  * -42.61900000  *
   188       H         71.37700000  *  160.90600000  * -42.66800000  *
   189       C         73.06400000  *  160.45200000  * -41.42500000  *
   190       H         72.63300000  *  160.94600000  * -40.56800000  *
   191       C         74.33000000  *  159.87400000  * -41.37100000  *
   192       O         75.04700000  *  159.90100000  * -40.18700000  *
   193       H         74.69700000  *  160.54100000  * -39.56800000  *
   194       C         74.87500000  *  159.27800000  * -42.50300000  *
   195       H         75.78500000  *  158.71900000  * -42.41900000  *
   196       C         74.14000000  *  159.26700000  * -43.69600000  *
   197       H         74.51800000  *  158.73300000  * -44.56500000  *
   198       C         70.16700000  *  159.17400000  * -46.42900000  *
   199       O         70.41800000  *  158.72400000  * -47.55600000  *
   200       N         69.03100000  *  159.83600000  * -46.21300000  *
   201       H         68.84400000  *  160.14300000  * -45.26500000  *
   202       C         68.29500000  *  160.51200000  * -47.28200000  *
   203       H         68.28700000  *  159.91000000  * -48.19300000  *
   204       C         66.84900000  *  160.83600000  * -46.85100000  *
   205       H         66.33100000  *  159.91500000  * -46.59800000  *
   206       H         66.86500000  *  161.47100000  * -45.96300000  *
   207       C         66.04200000  *  161.52900000  * -47.96100000  *
   208       H         66.51900000  *  162.47100000  * -48.23400000  *
   209       H         66.01300000  *  160.88100000  * -48.83800000  *
   210       C         64.60800000  *  161.81100000  * -47.48400000  *
   211       H         64.14800000  *  160.87800000  * -47.15300000  *
   212       H         64.64400000  *  162.50100000  * -46.64000000  *
   213       C         63.76800000  *  162.41700000  * -48.61600000  *
   214       H         64.29300000  *  163.29300000  * -49.01200000  *
   215       H         63.69000000  *  161.67800000  * -49.42100000  *
   216       N         62.41200000  *  162.81100000  * -48.14900000  *
   217       H         62.46100000  *  163.51500000  * -47.42700000  *
   218       H         61.86300000  *  163.19900000  * -48.90500000  *
   219       H         61.90300000  *  162.02200000  * -47.77300000  *
   220       C         69.10000000  *  161.76700000  * -47.51000000  *
   221       O         69.33000000  *  162.50100000  * -46.55200000  *
   222       N         69.55500000  *  162.00600000  * -48.72500000  *
   223       H         69.34400000  *  161.34200000  * -49.46700000  *
   224       C         70.34900000  *  163.18200000  * -49.01700000  *
   225       H         70.22500000  *  163.93500000  * -48.24000000  *
   226       C         71.81400000  *  162.79200000  * -49.07000000  *
   227       H         71.97800000  *  162.06700000  * -49.86400000  *
   228       H         72.42900000  *  163.67700000  * -49.23900000  *
   229       H         72.10500000  *  162.33200000  * -48.12600000  *
   230       C         69.94400000  *  163.83800000  * -50.32200000  *
   231       O         69.22100000  *  163.25100000  * -51.12800000  *
   232       N         70.40700000  *  165.06400000  * -50.52400000  *
   233       H         70.93200000  *  165.53000000  * -49.79600000  *
   234       C         70.10800000  *  165.77900000  * -51.74600000  *
   235       H         69.54100000  *  165.15900000  * -52.44400000  *
   236       H         69.52200000  *  166.69100000  * -51.53000000  *
   237       H         71.05900000  *  166.04700000  * -52.23900000  *
   238       H         68.08600000  *  164.80700000  * -56.55000000  *
   239       C         68.21200000  *  164.39600000  * -55.53600000  *
   240       O         69.28600000  *  164.50800000  * -54.94200000  *
   241       N         67.13500000  *  163.82300000  * -55.01100000  *
   242       H         66.34000000  *  163.66800000  * -55.61500000  *
   243       C         67.13600000  *  163.21200000  * -53.68800000  *
   244       H         67.86300000  *  163.70700000  * -53.05000000  *
   245       C         65.75500000  *  163.32300000  * -53.02900000  *
   246       H         64.97700000  *  163.06900000  * -53.75000000  *
   247       C         65.64800000  *  162.36600000  * -51.85200000  *
   248       H         66.47200000  *  162.51800000  * -51.15200000  *
   249       H         64.69700000  *  162.53800000  * -51.34700000  *
   250       H         65.65200000  *  161.33900000  * -52.20000000  *
   251       C         65.54000000  *  164.75000000  * -52.56600000  *
   252       H         65.62600000  *  165.42400000  * -53.41600000  *
   253       H         64.53500000  *  164.85100000  * -52.15900000  *
   254       H         66.28400000  *  165.00300000  * -51.81000000  *
   255       C         67.52600000  *  161.76000000  * -53.84700000  *
   256       O         66.97900000  *  161.02800000  * -54.68200000  *
   257       N         68.49600000  *  161.34900000  * -53.04800000  *
   258       H         68.91100000  *  161.99700000  * -52.39100000  *
   259       C         69.01100000  *  159.99200000  * -53.10200000  *
   260       H         68.34600000  *  159.34100000  * -53.67900000  *
   261       C         70.37400000  *  159.97400000  * -53.81600000  *
   262       H         70.77500000  *  158.96500000  * -53.87500000  *
   263       C         70.21400000  *  160.50700000  * -55.21300000  *
   264       H         69.95700000  *  161.56600000  * -55.19000000  *
   265       H         71.15100000  *  160.39100000  * -55.75600000  *
   266       H         69.44200000  *  159.95000000  * -55.73600000  *
   267       C         71.37900000  *  160.85000000  * -53.05700000  *
   268       H         71.56500000  *  160.44500000  * -52.06400000  *
   269       H         72.31500000  *  160.84900000  * -53.61300000  *
   270       H         71.03600000  *  161.88400000  * -52.98400000  *
   271       C         69.19200000  *  159.37200000  * -51.72900000  *
   272       O         69.02000000  *  160.03600000  * -50.68600000  *
   273       N         69.38400000  *  158.05900000  * -51.70500000  *
   274       H         69.46300000  *  157.56600000  * -52.59000000  *
   275       C         69.76100000  *  157.32400000  * -50.51400000  *
   276       H         69.47900000  *  157.88500000  * -49.62400000  *
   277       C         69.00900000  *  156.00200000  * -50.48200000  *
   278       H         69.24600000  *  155.43200000  * -51.37700000  *
   279       H         69.29800000  *  155.43100000  * -49.59900000  *
   280       H         67.93900000  *  156.20200000  * -50.44700000  *
   281       C         71.27800000  *  157.14400000  * -50.54000000  *
   282       O         71.81300000  *  156.46700000  * -51.42500000  *
   283       N         71.97000000  *  157.79100000  * -49.60300000  *
   284       H         71.44500000  *  158.28300000  * -48.88900000  *
   285       C         73.41300000  *  157.73400000  * -49.53500000  *
   286       H         73.80300000  *  157.43200000  * -50.50200000  *
   287       C         73.96100000  *  159.11400000  * -49.18200000  *
   288       H         73.49200000  *  159.84000000  * -49.85100000  *
   289       H         73.62800000  *  159.35800000  * -48.16900000  *
   290       C         75.47300000  *  159.31600000  * -49.26600000  *
   291       H         75.96900000  *  158.63700000  * -48.57100000  *
   292       C         75.94900000  *  159.02000000  * -50.68400000  *
   293       H         75.44100000  *  159.71800000  * -51.34800000  *
   294       H         77.02400000  *  159.18800000  * -50.76300000  *
   295       H         75.74700000  *  157.98700000  * -50.96800000  *
   296       C         75.80400000  *  160.74000000  * -48.87900000  *
   297       H         75.43700000  *  160.94600000  * -47.87600000  *
   298       H         76.88200000  *  160.87900000  * -48.92200000  *
   299       H         75.32000000  *  161.42900000  * -49.57600000  *
   300       C         73.82100000  *  156.71600000  * -48.48500000  *
   301       O         73.39600000  *  156.78100000  * -47.33400000  *
   302       N         74.65900000  *  155.76200000  * -48.88100000  *
   303       H         74.90500000  *  155.74100000  * -49.86900000  *
   304       C         75.12700000  *  154.64400000  * -48.05400000  *
   305       H         74.60600000  *  154.64400000  * -47.09500000  *
   306       C         74.79900000  *  153.34100000  * -48.81900000  *
   307       H         74.18600000  *  153.57700000  * -49.69200000  *
   308       H         75.71500000  *  152.88600000  * -49.19400000  *
   309       C         74.02600000  *  152.28700000  * -48.02500000  *
   310       H         73.18800000  *  152.75700000  * -47.51000000  *
   311       H         73.61500000  *  151.58800000  * -48.75300000  *
   312       C         74.91200000  *  151.52700000  * -47.02200000  *
   313       H         75.90300000  *  151.37000000  * -47.44600000  *
   314       H         75.02600000  *  152.13800000  * -46.12200000  *
   315       C         74.30700000  *  150.16300000  * -46.64300000  *
   316       H         74.86100000  *  149.76800000  * -45.78500000  *
   317       H         73.27500000  *  150.32900000  * -46.31700000  *
   318       N         74.35200000  *  149.18800000  * -47.77700000  *
   319       H         75.29600000  *  148.89200000  * -47.99700000  *
   320       H         73.79600000  *  148.34000000  * -47.59200000  *
   321       H         73.94400000  *  149.57300000  * -48.62000000  *
   322       C         76.62300000  *  154.82400000  * -47.79100000  *
   323       O         77.41700000  *  154.62100000  * -48.70200000  *
   324       N         77.01700000  *  155.22600000  * -46.58100000  *
   325       H         76.29800000  *  155.26800000  * -45.86500000  *
   326       C         78.42200000  *  155.28900000  * -46.15900000  *
   327       H         79.06600000  *  155.59300000  * -46.98900000  *
   328       C         78.56700000  *  156.26000000  * -44.97900000  *
   329       H         78.02700000  *  155.87500000  * -44.10900000  *
   330       H         79.62500000  *  156.33900000  * -44.73000000  *
   331       C         78.01500000  *  157.64300000  * -45.34000000  *
   332       H         78.45100000  *  157.95800000  * -46.27300000  *
   333       H         76.93600000  *  157.57500000  * -45.50000000  *
   334       C         78.25100000  *  158.72500000  * -44.27900000  *
   335       H         77.97800000  *  159.68000000  * -44.73200000  *
   336       H         77.56000000  *  158.53300000  * -43.46900000  *
   337       C         79.67700000  *  158.85000000  * -43.70900000  *
   338       H         80.38400000  *  158.36300000  * -44.39700000  *
   339       H         79.95000000  *  159.91100000  * -43.68600000  *
   340       N         79.78800000  *  158.26900000  * -42.33500000  *
   341       H         79.63700000  *  157.26100000  * -42.37000000  *
   342       H         80.69600000  *  158.42600000  * -41.93200000  *
   343       H         79.10400000  *  158.64600000  * -41.70100000  *
   344       C         78.82300000  *  153.89100000  * -45.72900000  *
   345       O         78.09100000  *  153.31500000  * -44.93700000  *
   346       N         79.90700000  *  153.32000000  * -46.24700000  *
   347       H         80.40500000  *  153.76400000  * -47.01000000  *
   348       C         80.34300000  *  152.02200000  * -45.76800000  *
   349       H         79.49500000  *  151.49800000  * -45.35900000  *
   350       C         80.94400000  *  151.18600000  * -46.89500000  *
   351       H         81.78600000  *  151.78200000  * -47.16900000  *
   352       C         81.42400000  *  149.85200000  * -46.34500000  *
   353       H         80.65600000  *  149.35200000  * -45.75200000  *
   354       H         81.67900000  *  149.19900000  * -47.17900000  *
   355       H         82.34500000  *  149.95700000  * -45.76100000  *
   356       C         79.89700000  *  150.97600000  * -47.99700000  *
   357       H         79.60200000  *  151.87000000  * -48.50000000  *
   358       H         80.28300000  *  150.30500000  * -48.75000000  *
   359       C         78.59100000  *  150.36100000  * -47.52600000  *
   360       H         78.17700000  *  150.90100000  * -46.69000000  *
   361       H         77.89400000  *  150.33700000  * -48.36300000  *
   362       H         78.77100000  *  149.33300000  * -47.20900000  *
   363       C         81.33300000  *  152.07100000  * -44.61400000  *
   364       O         82.16700000  *  152.98000000  * -44.51900000  *
   365       N         81.21100000  *  151.07100000  * -43.74300000  *
   366       H         80.50300000  *  150.36100000  * -43.92800000  *
   367       C         82.04400000  *  150.90200000  * -42.55200000  *
   368       H         81.47500000  *  151.18100000  * -41.66300000  *
   369       H         82.35800000  *  149.86100000  * -42.45900000  *
   370       H         82.94700000  *  151.51400000  * -42.62000000  *
   371       H         81.25700000  *  144.04600000  * -57.89900000  *
   372       C         80.50000000  *  144.84100000  * -57.88800000  *
   373       O         79.71500000  *  144.99000000  * -58.82400000  *
   374       N         80.49900000  *  145.60300000  * -56.79700000  *
   375       H         81.28000000  *  145.52500000  * -56.16600000  *
   376       C         79.57000000  *  146.70600000  * -56.61200000  *
   377       H         78.57500000  *  146.34400000  * -56.42300000  *
   378       C         80.00500000  *  147.61000000  * -55.44200000  *
   379       H         80.89800000  *  148.18000000  * -55.68500000  *
   380       C         78.90600000  *  148.60800000  * -55.12500000  *
   381       H         77.92000000  *  148.14100000  * -55.17600000  *
   382       H         79.04500000  *  148.98700000  * -54.11600000  *
   383       H         78.93800000  *  149.43600000  * -55.83300000  *
   384       C         80.32100000  *  146.76200000  * -54.20900000  *
   385       H         81.19200000  *  146.13400000  * -54.40600000  *
   386       H         80.59400000  *  147.42200000  * -53.38900000  *
   387       C         79.18400000  *  145.87900000  * -53.76500000  *
   388       H         78.77800000  *  145.31100000  * -54.59400000  *
   389       H         79.50900000  *  145.12200000  * -53.06500000  *
   390       H         78.38800000  *  146.48300000  * -53.33500000  *
   391       C         79.54300000  *  147.54500000  * -57.87900000  *
   392       O         78.48200000  *  147.77900000  * -58.45100000  *
   393       N         80.72300000  *  147.98900000  * -58.30900000  *
   394       H         81.55800000  *  147.70100000  * -57.81200000  *
   395       C         80.85900000  *  148.80400000  * -59.51100000  *
   396       H         80.33900000  *  149.74600000  * -59.38600000  *
   397       H         81.92800000  *  148.98500000  * -59.72900000  *
   398       H         80.37800000  *  148.32200000  * -60.38100000  *
   399       H         78.96400000  *  146.08700000  * -61.65600000  *
   400       C         77.87300000  *  146.08700000  * -61.51600000  *
   401       O         77.11500000  *  145.89500000  * -62.46400000  *
   402       N         77.44600000  *  146.31800000  * -60.28000000  *
   403       H         78.13400000  *  146.42500000  * -59.54900000  *
   404       C         76.02800000  *  146.35200000  * -59.94500000  *
   405       H         75.53300000  *  145.47600000  * -60.35900000  *
   406       C         75.84100000  *  146.37400000  * -58.43100000  *
   407       H         76.20500000  *  147.30400000  * -58.01800000  *
   408       H         74.76300000  *  146.35700000  * -58.24200000  *
   409       C         76.47200000  *  145.22200000  * -57.65900000  *
   410       H         77.55000000  *  145.23900000  * -57.74900000  *
   411       C         76.08000000  *  145.34100000  * -56.19200000  *
   412       H         74.99900000  *  145.23000000  * -56.07700000  *
   413       H         76.57300000  *  144.55300000  * -55.62900000  *
   414       H         76.38500000  *  146.30900000  * -55.80100000  *
   415       C         75.99600000  *  143.89000000  * -58.23600000  *
   416       H         76.41500000  *  143.73000000  * -59.22900000  *
   417       H         76.32800000  *  143.07800000  * -57.59100000  *
   418       H         74.90500000  *  143.87400000  * -58.30500000  *
   419       C         75.32200000  *  147.55900000  * -60.54800000  *
   420       O         74.09500000  *  147.56800000  * -60.66200000  *
   421       N         76.08400000  *  148.63100000  * -60.82900000  *
   422       H         77.08200000  *  148.53500000  * -60.67700000  *
   423       C         75.60100000  *  149.83300000  * -61.53400000  *
   424       H         74.83700000  *  150.33500000  * -60.94100000  *
   425       H         76.43800000  *  150.53300000  * -61.75900000  *
   426       H         75.13800000  *  149.54900000  * -62.49200000  *
   427       H         62.79000000  *  145.77200000  * -59.27600000  *
   428       C         63.71000000  *  145.72000000  * -58.67500000  *
   429       O         63.77900000  *  145.02200000  * -57.66400000  *
   430       N         64.72400000  *  146.45200000  * -59.11400000  *
   431       H         64.63800000  *  147.05100000  * -59.92700000  *
   432       C         65.97100000  *  146.53500000  * -58.38100000  *
   433       H         65.88400000  *  146.09200000  * -57.38600000  *
   434       C         67.11600000  *  145.87700000  * -59.11400000  *
   435       H         67.33600000  *  146.42600000  * -60.03000000  *
   436       C         68.35100000  *  145.87800000  * -58.21400000  *
   437       H         68.14700000  *  145.31400000  * -57.31800000  *
   438       H         69.21000000  *  145.44500000  * -58.72400000  *
   439       H         68.64100000  *  146.89000000  * -57.94500000  *
   440       C         66.72800000  *  144.44400000  * -59.47800000  *
   441       H         66.54900000  *  143.87300000  * -58.56400000  *
   442       H         65.81500000  *  144.42400000  * -60.06800000  *
   443       C         67.77400000  *  143.72700000  * -60.29600000  *
   444       H         68.68300000  *  143.57700000  * -59.72200000  *
   445       H         67.37700000  *  142.75300000  * -60.59800000  *
   446       H         68.02300000  *  144.31300000  * -61.18000000  *
   447       C         66.29500000  *  148.01000000  * -58.22000000  *
   448       O         66.21200000  *  148.78000000  * -59.18400000  *
   449       N         66.54900000  *  148.43900000  * -56.98200000  *
   450       H         66.61800000  *  147.75600000  * -56.23100000  *
   451       C         66.89000000  *  149.83400000  * -56.68500000  *
   452       H         66.07400000  *  150.48000000  * -57.01000000  *
   453       C         67.10000000  *  150.03400000  * -55.17900000  *
   454       H         67.89100000  *  149.36600000  * -54.83400000  *
   455       C         67.49300000  *  151.47200000  * -54.83300000  *
   456       H         66.67100000  *  152.15700000  * -55.04600000  *
   457       H         67.73800000  *  151.51300000  * -53.77500000  *
   458       H         68.36800000  *  151.78400000  * -55.39600000  *
   459       C         65.81900000  *  149.72200000  * -54.40200000  *
   460       H         65.53600000  *  148.68000000  * -54.52100000  *
   461       H         66.00400000  *  149.90300000  * -53.35000000  *
   462       H         65.00600000  *  150.35600000  * -54.74800000  *
   463       C         68.15000000  *  150.21100000  * -57.45800000  *
   464       O         69.17700000  *  149.53800000  * -57.34000000  *
   465       N         68.08000000  *  151.28300000  * -58.25100000  *
   466       H         67.22500000  *  151.80400000  * -58.24500000  *
   467       C         69.18900000  *  151.69800000  * -59.08000000  *
   468       H         69.52500000  *  150.81900000  * -59.63900000  *
   469       C         68.73700000  *  152.76800000  * -60.08300000  *
   470       H         67.83400000  *  152.41100000  * -60.57900000  *
   471       H         68.47700000  *  153.68100000  * -59.53700000  *
   472       C         69.79100000  *  153.06900000  * -61.13100000  *
   473       H         70.72100000  *  153.35000000  * -60.64200000  *
   474       H         69.97400000  *  152.16800000  * -61.71600000  *
   475       C         69.35100000  *  154.17900000  * -62.08100000  *
   476       H         68.50200000  *  153.81400000  * -62.66100000  *
   477       H         69.02300000  *  155.05600000  * -61.52200000  *
   478       C         70.49800000  *  154.55900000  * -63.02400000  *
   479       H         71.33900000  *  154.89000000  * -62.40800000  *
   480       H         70.81900000  *  153.66100000  * -63.56600000  *
   481       N         70.11800000  *  155.62600000  * -63.99700000  *
   482       H         69.74700000  *  156.41600000  * -63.48300000  *
   483       H         70.92600000  *  155.93300000  * -64.52500000  *
   484       H         69.41500000  *  155.27800000  * -64.63600000  *
   485       C         70.36000000  *  152.21400000  * -58.25300000  *
   486       O         70.19400000  *  153.07400000  * -57.38700000  *
   487       N         71.53700000  *  151.64500000  * -58.50700000  *
   488       H         71.59600000  *  150.90400000  * -59.18600000  *
   489       C         72.75000000  *  152.07400000  * -57.83600000  *
   490       H         72.53800000  *  152.52600000  * -56.87100000  *
   491       C         73.72700000  *  150.91100000  * -57.67000000  *
   492       H         73.31500000  *  150.22100000  * -56.93700000  *
   493       H         73.77900000  *  150.36900000  * -58.62000000  *
   494       C         75.16700000  *  151.27300000  * -57.28800000  *
   495       H         75.65500000  *  151.80300000  * -58.10000000  *
   496       C         75.18300000  *  152.16500000  * -56.05900000  *
   497       H         74.60800000  *  151.72100000  * -55.25200000  *
   498       H         76.21000000  *  152.29600000  * -55.73500000  *
   499       H         74.78900000  *  153.14000000  * -56.31200000  *
   500       C         75.93300000  *  149.99400000  * -57.01300000  *
   501       H         75.98300000  *  149.42100000  * -57.93300000  *
   502       H         76.94600000  *  150.24200000  * -56.71200000  *
   503       H         75.43500000  *  149.41000000  * -56.23200000  *
   504       C         73.31900000  *  153.11300000  * -58.79500000  *
   505       O         73.76900000  *  152.77900000  * -59.89700000  *
   506       N         73.26700000  *  154.36900000  * -58.37800000  *
   507       H         72.92600000  *  154.57000000  * -57.44900000  *
   508       C         73.73400000  *  155.46600000  * -59.19700000  *
   509       H         73.47500000  *  155.26500000  * -60.23600000  *
   510       C         73.02500000  *  156.74200000  * -58.76000000  *
   511       H         73.45000000  *  157.06300000  * -57.80900000  *
   512       H         73.23600000  *  157.53300000  * -59.48700000  *
   513       C         71.51300000  *  156.60300000  * -58.58700000  *
   514       H         71.27400000  *  155.80900000  * -57.88500000  *
   515       C         70.97400000  *  157.88000000  * -58.01900000  *
   516       H         71.37000000  *  158.74600000  * -58.56000000  *
   517       H         69.88800000  *  157.89100000  * -58.09300000  *
   518       H         71.22100000  *  157.96000000  * -56.96600000  *
   519       C         70.85100000  *  156.29000000  * -59.92300000  *
   520       H         71.28300000  *  155.39700000  * -60.34200000  *
   521       H         69.78900000  *  156.14400000  * -59.75100000  *
   522       H         71.00300000  *  157.12700000  * -60.60700000  *
   523       C         75.24500000  *  155.67800000  * -59.15800000  *
   524       O         75.83900000  *  156.04700000  * -60.17600000  *
   525       N         75.86200000  *  155.44600000  * -57.99600000  *
   526       H         75.29500000  *  155.17900000  * -57.20400000  *
   527       C         77.30800000  *  155.64700000  * -57.82900000  *
   528       H         77.80800000  *  155.40400000  * -58.76600000  *
   529       C         77.60000000  *  157.11700000  * -57.51900000  *
   530       H         76.91700000  *  157.54400000  * -56.80300000  *
   531       H         78.58200000  *  157.17000000  * -57.04800000  *
   532       C         77.65600000  *  157.97500000  * -58.75600000  *
   533       O         78.67800000  *  157.91700000  * -59.48300000  *
   534       O         76.67400000  *  158.70400000  * -59.00000000  *
   535       C         77.97900000  *  154.81700000  * -56.73400000  *
   536       O         77.37100000  *  154.52100000  * -55.70400000  *
   537       N         79.24700000  *  154.47700000  * -56.96600000  *
   538       H         79.69800000  *  154.82400000  * -57.79800000  *
   539       C         80.06100000  *  153.73800000  * -56.00300000  *
   540       H         79.55400000  *  153.69900000  * -55.05200000  *
   541       C         80.36600000  *  152.29800000  * -56.50400000  *
   542       H         79.42700000  *  151.75200000  * -56.56200000  *
   543       C         80.98100000  *  152.34300000  * -57.88400000  *
   544       H         82.06600000  *  152.43300000  * -57.82100000  *
   545       H         80.74600000  *  151.41400000  * -58.37900000  *
   546       H         80.59600000  *  153.14500000  * -58.51000000  *
   547       C         81.29900000  *  151.58800000  * -55.53900000  *
   548       H         80.81100000  *  151.54900000  * -54.57200000  *
   549       H         81.47300000  *  150.57200000  * -55.87800000  *
   550       H         82.25900000  *  152.09200000  * -55.44900000  *
   551       C         81.36500000  *  154.53600000  * -55.81000000  *
   552       O         82.27000000  *  154.48900000  * -56.64700000  *
   553       N         81.45200000  *  155.28200000  * -54.71000000  *
   554       H         80.67600000  *  155.30400000  * -54.06400000  *
   555       C         82.62100000  *  156.11100000  * -54.44300000  *
   556       H         83.20500000  *  156.21800000  * -55.35800000  *
   557       H         82.32200000  *  157.12800000  * -54.14500000  *
   558       H         83.29700000  *  155.73900000  * -53.65600000  *
   559       H         84.58000000  *  155.17100000  * -47.07300000  *
   560       C         84.22500000  *  154.98400000  * -48.09100000  *
   561       O         84.63900000  *  155.65900000  * -49.04200000  *
   562       N         83.35800000  *  153.99100000  * -48.22200000  *
   563       H         83.13600000  *  153.42800000  * -47.41700000  *
   564       C         82.77600000  *  153.65100000  * -49.50600000  *
   565       H         83.37000000  *  154.04700000  * -50.31700000  *
   566       C         82.71900000  *  152.14000000  * -49.66000000  *
   567       H         83.74000000  *  151.87500000  * -49.95700000  *
   568       H         82.64400000  *  151.54600000  * -48.78400000  *
   569       C         81.82600000  *  151.61900000  * -50.77900000  *
   570       H         80.79100000  *  151.88400000  * -50.58700000  *
   571       C         82.25800000  *  152.23100000  * -52.09200000  *
   572       H         83.31100000  *  152.49100000  * -52.08900000  *
   573       H         82.09300000  *  151.51300000  * -52.88400000  *
   574       H         81.65400000  *  153.10900000  * -52.31200000  *
   575       C         81.89900000  *  150.09400000  * -50.82200000  *
   576       H         81.91300000  *  149.66400000  * -49.82700000  *
   577       H         81.05200000  *  149.70600000  * -51.39100000  *
   578       H         82.82500000  *  149.80300000  * -51.32100000  *
   579       C         81.36700000  *  154.23200000  * -49.54800000  *
   580       O         80.51800000  *  153.85700000  * -48.74500000  *
   581       N         81.13100000  *  155.16100000  * -50.46700000  *
   582       H         81.84500000  *  155.34800000  * -51.16200000  *
   583       C         79.82200000  *  155.78100000  * -50.60800000  *
   584       H         79.27400000  *  155.67000000  * -49.68700000  *
   585       C         79.96700000  *  157.27800000  * -50.86800000  *
   586       H         80.42300000  *  157.50400000  * -51.79700000  *
   587       H         78.95400000  *  157.66400000  * -50.98900000  *
   588       C         80.57600000  *  158.04300000  * -49.72300000  *
   589       C         79.79300000  *  158.48000000  * -48.65600000  *
   590       H         78.73500000  *  158.25400000  * -48.66900000  *
   591       C         80.35600000  *  159.18600000  * -47.59400000  *
   592       H         79.75300000  *  159.56200000  * -46.79700000  *
   593       C         81.71600000  *  159.45200000  * -47.58700000  *
   594       O         82.27600000  *  160.12500000  * -46.52100000  *
   595       H         83.20600000  *  160.30800000  * -46.74500000  *
   596       C         82.51400000  *  159.02600000  * -48.63700000  *
   597       H         83.58200000  *  159.23300000  * -48.65000000  *
   598       C         81.94100000  *  158.32800000  * -49.69800000  *
   599       H         82.57400000  *  157.98100000  * -50.50200000  *
   600       C         79.04800000  *  155.15800000  * -51.76500000  *
   601       O         79.54400000  *  155.08000000  * -52.88800000  *
   602       N         77.86400000  *  154.61900000  * -51.49400000  *
   603       H         77.54100000  *  154.63200000  * -50.53300000  *
   604       C         76.98200000  *  154.05600000  * -52.51600000  *
   605       H         77.50800000  *  154.01000000  * -53.46300000  *
   606       C         76.54600000  *  152.62200000  * -52.17200000  *
   607       H         75.84900000  *  152.66000000  * -51.34300000  *
   608       H         76.00700000  *  152.22400000  * -53.03300000  *
   609       C         77.68200000  *  151.65000000  * -51.81200000  *
   610       H         78.18900000  *  151.99000000  * -50.91000000  *
   611       C         77.11200000  *  150.25700000  * -51.55000000  *
   612       H         76.62300000  *  149.87500000  * -52.44800000  *
   613       H         77.91700000  *  149.57600000  * -51.26600000  *
   614       H         76.39000000  *  150.30200000  * -50.73700000  *
   615       C         78.69600000  *  151.53600000  * -52.94300000  *
   616       H         79.21300000  *  152.48400000  * -53.06600000  *
   617       H         79.43300000  *  150.77500000  * -52.69600000  *
   618       H         78.19000000  *  151.27500000  * -53.87400000  *
   619       C         75.78600000  *  154.98500000  * -52.67200000  *
   620       O         75.10200000  *  155.25600000  * -51.68200000  *
   621       N         75.54700000  *  155.50800000  * -53.87800000  *
   622       H         76.14500000  *  155.25500000  * -54.66000000  *
   623       C         74.40900000  *  156.37500000  * -54.09400000  *
   624       H         73.97600000  *  156.70200000  * -53.15000000  *
   625       C         74.83400000  *  157.63700000  * -54.81800000  *
   626       H         75.25500000  *  157.34500000  * -55.76600000  *
   627       C         73.61400000  *  158.52200000  * -55.10900000  *
   628       H         73.11700000  *  158.76900000  * -54.17500000  *
   629       H         73.94100000  *  159.43100000  * -55.61500000  *
   630       H         72.91600000  *  158.00900000  * -55.76200000  *
   631       C         75.84000000  *  158.38200000  * -53.94900000  *
   632       H         75.28100000  *  158.78400000  * -53.13000000  *
   633       H         76.65600000  *  157.75800000  * -53.60500000  *
   634       H         76.26100000  *  159.20400000  * -54.52500000  *
   635       C         73.31400000  *  155.64400000  * -54.85300000  *
   636       O         73.49500000  *  155.22100000  * -55.99400000  *
   637       N         72.20700000  *  155.38700000  * -54.16300000  *
   638       H         72.13600000  *  155.73900000  * -53.21200000  *
   639       C         71.03000000  *  154.72300000  * -54.71200000  *
   640       H         71.28400000  *  154.26400000  * -55.66400000  *
   641       C         70.56300000  *  153.62100000  * -53.75700000  *
   642       H         70.40700000  *  154.05300000  * -52.76900000  *
   643       H         69.59800000  *  153.26000000  * -54.10400000  *
   644       C         71.49700000  *  152.43200000  * -53.63100000  *
   645       C         71.37000000  *  151.33800000  * -54.50900000  *
   646       H         70.63400000  *  151.35800000  * -55.30000000  *
   647       C         72.19100000  *  150.20700000  * -54.35700000  *
   648       H         72.08100000  *  149.36400000  * -55.02600000  *
   649       C         73.14900000  *  150.16800000  * -53.33000000  *
   650       H         73.78100000  *  149.29700000  * -53.21200000  *
   651       C         73.28400000  *  151.26100000  * -52.45700000  *
   652       H         74.01200000  *  151.22300000  * -51.66100000  *
   653       C         72.46400000  *  152.39400000  * -52.60700000  *
   654       H         72.56700000  *  153.23000000  * -51.92800000  *
   655       C         69.90600000  *  155.73300000  * -54.95200000  *
   656       O         69.76600000  *  156.70300000  * -54.20500000  *
   657       N         69.08400000  *  155.51500000  * -55.97900000  *
   658       H         69.23900000  *  154.69100000  * -56.55200000  *
   659       C         67.82000000  *  156.25400000  * -56.12700000  *
   660       H         68.06100000  *  157.30300000  * -56.30400000  *
   661       C         67.03100000  *  155.74500000  * -57.34600000  *
   662       H         66.17300000  *  156.40200000  * -57.48500000  *
   663       H         67.66300000  *  155.81200000  * -58.23300000  *
   664       C         66.53400000  *  154.29900000  * -57.19200000  *
   665       H         67.39600000  *  153.64400000  * -57.05900000  *
   666       H         65.91300000  *  154.22400000  * -56.30300000  *
   667       C         65.68900000  *  153.80000000  * -58.36700000  *
   668       O         65.18300000  *  154.61100000  * -59.17500000  *
   669       O         65.49000000  *  152.56700000  * -58.44500000  *
   670       C         66.98200000  *  156.17200000  * -54.83300000  *
   671       O         66.91600000  *  155.11700000  * -54.20000000  *
   672       N         66.35400000  *  157.26800000  * -54.40700000  *
   673       H         66.39100000  *  158.11400000  * -54.95800000  *
   674       C         65.50300000  *  157.25500000  * -53.21300000  *
   675       H         65.98200000  *  156.63600000  * -52.45100000  *
   676       C         65.39200000  *  158.67000000  * -52.64300000  *
   677       H         66.39200000  *  159.02800000  * -52.40300000  *
   678       H         64.97400000  *  159.32800000  * -53.40600000  *
   679       C         64.54800000  *  158.76900000  * -51.38700000  *
   680       C         63.24800000  *  159.30800000  * -51.44500000  *
   681       H         62.84600000  *  159.65900000  * -52.38500000  *
   682       C         62.46700000  *  159.39000000  * -50.27900000  *
   683       H         61.46900000  *  159.80300000  * -50.32900000  *
   684       C         62.98000000  *  158.93100000  * -49.05400000  *
   685       H         62.37600000  *  158.99100000  * -48.15800000  *
   686       C         64.27800000  *  158.39400000  * -48.99300000  *
   687       H         64.67200000  *  158.04600000  * -48.04900000  *
   688       C         65.06100000  *  158.31300000  * -50.15800000  *
   689       H         66.05900000  *  157.90000000  * -50.11000000  *
   690       C         64.11900000  *  156.65400000  * -53.50200000  *
   691       O         63.46700000  *  157.02100000  * -54.48300000  *
   692       N         63.65000000  *  155.77800000  * -52.60900000  *
   693       H         64.26200000  *  155.50800000  * -51.84900000  *
   694       C         62.25600000  *  155.33100000  * -52.52200000  *
   695       H         61.64900000  *  155.87200000  * -53.25100000  *
   696       C         62.13500000  *  153.82500000  * -52.81000000  *
   697       H         62.86700000  *  153.28500000  * -52.21100000  *
   698       H         61.14300000  *  153.51200000  * -52.48100000  *
   699       C         62.29000000  *  153.45700000  * -54.29900000  *
   700       H         61.93900000  *  154.28200000  * -54.91900000  *
   701       C         63.74200000  *  153.13700000  * -54.65600000  *
   702       H         64.11100000  *  152.33300000  * -54.02300000  *
   703       H         63.81200000  *  152.84600000  * -55.70400000  *
   704       H         64.36300000  *  154.01700000  * -54.50400000  *
   705       C         61.44800000  *  152.22400000  * -54.63700000  *
   706       H         60.40300000  *  152.40900000  * -54.38500000  *
   707       H         61.50800000  *  152.01900000  * -55.70500000  *
   708       H         61.80100000  *  151.35700000  * -54.08200000  *
   709       C         61.70200000  *  155.67200000  * -51.13400000  *
   710       O         62.42600000  *  155.64000000  * -50.14100000  *
   711       N         60.42800000  *  156.05200000  * -51.07000000  *
   712       H         59.90200000  *  156.08700000  * -51.93500000  *
   713       C         59.84000000  *  156.74400000  * -49.91800000  *
   714       H         60.54000000  *  157.51600000  * -49.59800000  *
   715       C         58.55900000  *  157.45300000  * -50.37900000  *
   716       H         57.79500000  *  156.70300000  * -50.58200000  *
   717       H         58.20800000  *  158.09200000  * -49.56900000  *
   718       C         58.72500000  *  158.30100000  * -51.62000000  *
   719       N         58.79200000  *  157.81500000  * -52.93100000  *
   720       C         58.96300000  *  158.89400000  * -53.71500000  *
   721       H         59.05300000  *  158.87000000  * -54.79600000  *
   722       N         59.00700000  *  160.01100000  * -52.96900000  *
   723       H         59.12500000  *  160.95100000  * -53.33500000  *
   724       C         58.86100000  *  159.65800000  * -51.64600000  *
   725       H         58.85400000  *  160.32000000  * -50.78900000  *
   726       C         59.57500000  *  155.87300000  * -48.67600000  *
   727       O         59.44900000  *  156.42100000  * -47.58000000  *
   728       N         59.48300000  *  154.54500000  * -48.81700000  *
   729       H         59.61000000  *  154.15200000  * -49.74000000  *
   730       C         59.10300000  *  153.61900000  * -47.73800000  *
   731       H         59.55800000  *  153.96200000  * -46.80800000  *
   732       C         57.56900000  *  153.66700000  * -47.56600000  *
   733       H         57.29100000  *  154.68300000  * -47.28200000  *
   734       H         57.08400000  *  153.43800000  * -48.51600000  *
   735       C         57.04000000  *  152.70100000  * -46.49600000  *
   736       H         56.91600000  *  151.71400000  * -46.93800000  *
   737       H         57.76500000  *  152.63000000  * -45.68600000  *
   738       C         55.72000000  *  153.16000000  * -45.89000000  *
   739       O         55.67500000  *  153.87500000  * -44.90200000  *
   740       N         54.59200000  *  152.77400000  * -46.44700000  *
   741       H         53.74000000  *  153.10000000  * -46.01800000  *
   742       H         54.59900000  *  152.21400000  * -47.28100000  *
   743       C         59.61100000  *  152.18700000  * -47.99100000  *
   744       O         59.67700000  *  151.74200000  * -49.13900000  *
   745       N         59.95300000  *  151.45600000  * -46.92300000  *
   746       H         59.85800000  *  151.87900000  * -46.00000000  *
   747       C         60.28000000  *  150.02300000  * -46.99600000  *
   748       H         60.57500000  *  149.80400000  * -48.01900000  *
   749       C         61.50700000  *  149.68800000  * -46.12900000  *
   750       H         61.83400000  *  148.68100000  * -46.39000000  *
   751       H         62.31500000  *  150.36900000  * -46.39900000  *
   752       C         61.28800000  *  149.73600000  * -44.61200000  *
   753       O         60.30800000  *  149.13500000  * -44.12400000  *
   754       O         62.14700000  *  150.32300000  * -43.91400000  *
   755       C         59.07400000  *  149.10800000  * -46.70000000  *
   756       O         58.04000000  *  149.54000000  * -46.17200000  *
   757       N         59.19100000  *  147.81900000  * -47.04800000  *
   758       H         60.03800000  *  147.50900000  * -47.52500000  *
   759       C         58.10100000  *  146.88000000  * -46.84100000  *
   760       H         57.21800000  *  147.32500000  * -47.29300000  *
   761       C         58.41200000  *  145.57700000  * -47.59200000  *
   762       H         58.61300000  *  145.80400000  * -48.64400000  *
   763       H         59.28800000  *  145.12100000  * -47.15800000  *
   764       C         57.28700000  *  144.52700000  * -47.51900000  *
   765       H         57.05600000  *  144.28000000  * -46.48700000  *
   766       C         56.00700000  *  145.04400000  * -48.19600000  *
   767       H         56.23500000  *  145.37800000  * -49.20200000  *
   768       H         55.26800000  *  144.24500000  * -48.23100000  *
   769       H         55.59500000  *  145.87000000  * -47.62900000  *
   770       C         57.76800000  *  143.24900000  * -48.17500000  *
   771       H         58.61500000  *  142.85400000  * -47.62000000  *
   772       H         56.97300000  *  142.50400000  * -48.17100000  *
   773       H         58.06400000  *  143.44500000  * -49.20700000  *
   774       C         57.76400000  *  146.61300000  * -45.36900000  *
   775       O         56.60900000  *  146.37600000  * -45.03000000  *
   776       N         58.75700000  *  146.67700000  * -44.48800000  *
   777       H         59.64000000  *  147.08600000  * -44.79000000  *
   778       C         58.49100000  *  146.46700000  * -43.07300000  *
   779       H         57.97900000  *  145.55100000  * -42.87200000  *
   780       C         59.78200000  *  146.47800000  * -42.25400000  *
   781       H         60.44800000  *  145.70000000  * -42.62000000  *
   782       H         60.28600000  *  147.44000000  * -42.35600000  *
   783       C         59.49200000  *  146.22900000  * -40.76500000  *
   784       H         58.94200000  *  147.08300000  * -40.37400000  *
   785       H         58.87100000  *  145.33200000  * -40.67600000  *
   786       C         60.74500000  *  146.03800000  * -39.93500000  *
   787       H         61.36100000  *  145.25900000  * -40.37900000  *
   788       H         61.30800000  *  146.97100000  * -39.90700000  *
   789       C         60.37600000  *  145.60700000  * -38.51700000  *
   790       H         59.98500000  *  144.58900000  * -38.53700000  *
   791       H         61.27900000  *  145.61300000  * -37.90300000  *
   792       N         59.34600000  *  146.53100000  * -37.94700000  *
   793       H         58.44600000  *  146.48100000  * -38.44300000  *
   794       H         59.09000000  *  146.27800000  * -37.00400000  *
   795       H         59.61300000  *  147.50600000  * -37.97800000  *
   796       C         57.55800000  *  147.53800000  * -42.51200000  *
   797       O         56.61300000  *  147.23400000  * -41.78300000  *
   798       N         57.83600000  *  148.81600000  * -42.79700000  *
   799       H         58.66500000  *  149.01300000  * -43.36300000  *
   800       C         56.99600000  *  149.92500000  * -42.32200000  *
   801       H         56.88100000  *  149.83100000  * -41.24000000  *
   802       C         57.66300000  *  151.27900000  * -42.61200000  *
   803       H         58.65800000  *  151.28400000  * -42.16600000  *
   804       H         57.76200000  *  151.41600000  * -43.69000000  *
   805       C         56.83900000  *  152.43200000  * -42.01300000  *
   806       H         55.87800000  *  152.49000000  * -42.52500000  *
   807       H         56.65500000  *  152.22600000  * -40.95700000  *
   808       C         57.54500000  *  153.78800000  * -42.13200000  *
   809       H         58.46800000  *  153.76100000  * -41.55200000  *
   810       H         57.77900000  *  153.98400000  * -43.18000000  *
   811       C         56.62200000  *  154.88800000  * -41.59100000  *
   812       H         55.70500000  *  154.89900000  * -42.18800000  *
   813       H         56.34600000  *  154.63700000  * -40.56200000  *
   814       N         57.26600000  *  156.22600000  * -41.62600000  *
   815       H         57.50400000  *  156.49600000  * -42.56900000  *
   816       H         56.64700000  *  156.93400000  * -41.25500000  *
   817       H         58.10900000  *  156.24200000  * -41.07100000  *
   818       C         55.59700000  *  149.82000000  * -42.91900000  *
   819       O         54.61400000  *  150.04600000  * -42.21900000  *
   820       N         55.49500000  *  149.42600000  * -44.18900000  *
   821       H         56.35000000  *  149.26300000  * -44.71300000  *
   822       C         54.20500000  *  149.26000000  * -44.85200000  *
   823       H         53.62600000  *  150.17500000  * -44.72500000  *
   824       C         54.41000000  *  148.98800000  * -46.34000000  *
   825       H         54.98900000  *  149.80200000  * -46.77700000  *
   826       H         55.00200000  *  148.07700000  * -46.45200000  *
   827       C         53.12600000  *  148.85300000  * -47.10800000  *
   828       C         52.23100000  *  149.92200000  * -47.18600000  *
   829       H         52.46300000  *  150.85600000  * -46.69900000  *
   830       C         51.01500000  *  149.79500000  * -47.88400000  *
   831       H         50.32500000  *  150.62800000  * -47.91800000  *
   832       C         50.69700000  *  148.60300000  * -48.50200000  *
   833       H         49.75200000  *  148.50200000  * -49.02000000  *
   834       C         51.58700000  *  147.52100000  * -48.43200000  *
   835       H         51.33500000  *  146.58300000  * -48.91200000  *
   836       C         52.79500000  *  147.65400000  * -47.73300000  *
   837       H         53.46700000  *  146.81000000  * -47.67200000  *
   838       C         53.37400000  *  148.12200000  * -44.22700000  *
   839       O         52.16900000  *  148.28300000  * -44.00900000  *
   840       N         54.01600000  *  146.98100000  * -43.96600000  *
   841       H         55.00900000  *  146.90600000  * -44.17900000  *
   842       C         53.33800000  *  145.83600000  * -43.34100000  *
   843       H         52.47600000  *  145.52800000  * -43.93400000  *
   844       C         54.29200000  *  144.65000000  * -43.17000000  *
   845       H         55.15800000  *  145.02700000  * -42.63600000  *
   846       H         53.80700000  *  143.89200000  * -42.54700000  *
   847       C         54.73100000  *  144.00400000  * -44.46100000  *
   848       H         53.84700000  *  143.61400000  * -44.95900000  *
   849       H         55.19200000  *  144.69400000  * -45.15000000  *
   850       S         55.79700000  *  142.58100000  * -44.15400000  *
   851       C         57.05400000  *  143.29200000  * -43.18800000  *
   852       H         56.67800000  *  143.65800000  * -42.23500000  *
   853       H         57.80700000  *  142.53400000  * -42.98200000  *
   854       H         57.44300000  *  144.07900000  * -43.80900000  *
   855       C         52.84400000  *  146.26000000  * -41.95900000  *
   856       O         51.68200000  *  146.03200000  * -41.61400000  *
   857       N         53.72600000  *  146.88400000  * -41.17900000  *
   858       H         54.70100000  *  146.95700000  * -41.45300000  *
   859       C         53.34300000  *  147.35100000  * -39.84600000  *
   860       H         53.03400000  *  146.49700000  * -39.23800000  *
   861       C         54.50500000  *  148.07700000  * -39.15700000  *
   862       H         54.94100000  *  148.81500000  * -39.83000000  *
   863       H         54.12400000  *  148.60600000  * -38.28400000  *
   864       C         55.58400000  *  147.11500000  * -38.68500000  *
   865       O         55.26200000  *  145.90900000  * -38.57600000  *
   866       O         56.73300000  *  147.55200000  * -38.41700000  *
   867       C         52.15000000  *  148.27900000  * -39.96300000  *
   868       O         51.20300000  *  148.18000000  * -39.18700000  *
   869       N         52.18300000  *  149.16200000  * -40.95500000  *
   870       H         53.01600000  *  149.23700000  * -41.51800000  *
   871       C         51.08600000  *  150.10000000  * -41.17300000  *
   872       H         50.93100000  *  150.67400000  * -40.25800000  *
   873       C         51.42800000  *  151.06800000  * -42.31500000  *
   874       H         51.45500000  *  150.53900000  * -43.26600000  *
   875       H         50.66000000  *  151.83800000  * -42.36800000  *
   876       H         52.39300000  *  151.53600000  * -42.12800000  *
   877       C         49.78900000  *  149.37000000  * -41.49900000  *
   878       O         48.71100000  *  149.83600000  * -41.15600000  *
   879       N         49.90500000  *  148.22900000  * -42.16400000  *
   880       H         50.83800000  *  147.88500000  * -42.38200000  *
   881       C         48.74000000  *  147.45400000  * -42.57500000  *
   882       H         47.85700000  *  148.08600000  * -42.62800000  *
   883       H         48.90600000  *  147.02300000  * -43.58600000  *
   884       H         48.52600000  *  146.61900000  * -41.88800000  *
   885       H         72.54500000  *  137.05800000  * -55.15200000  *
   886       C         72.38600000  *  137.90500000  * -54.47400000  *
   887       O         73.28300000  *  138.71900000  * -54.28600000  *
   888       N         71.20100000  *  138.01500000  * -53.89800000  *
   889       H         70.47300000  *  137.31400000  * -54.05700000  *
   890       C         70.96800000  *  139.10000000  * -52.94900000  *
   891       H         71.50000000  *  140.00600000  * -53.22900000  *
   892       C         69.47700000  *  139.40500000  * -52.82500000  *
   893       H         69.09300000  *  139.71900000  * -53.79200000  *
   894       H         68.93000000  *  138.50600000  * -52.53300000  *
   895       C         69.17800000  *  140.45400000  * -51.81200000  *
   896       N         69.23000000  *  140.42300000  * -50.45900000  *
   897       C         68.94700000  *  141.69100000  * -50.01400000  *
   898       H         68.96900000  *  142.01200000  * -48.98400000  *
   899       N         68.72400000  *  142.47200000  * -51.05500000  *
   900       H         68.47200000  *  143.44500000  * -51.00700000  *
   901       C         68.85400000  *  141.75000000  * -52.15500000  *
   902       H         68.77100000  *  142.12600000  * -53.16500000  *
   903       C         71.52100000  *  138.65700000  * -51.58300000  *
   904       O         72.28000000  *  139.38000000  * -50.94700000  *
   905       N         71.11400000  *  137.47100000  * -51.14500000  *
   906       H         70.37100000  *  137.01600000  * -51.66500000  *
   907       C         71.55500000  *  136.88000000  * -49.87700000  *
   908       H         71.18200000  *  135.84900000  * -49.87900000  *
   909       C         73.07600000  *  136.85300000  * -49.83700000  *
   910       H         73.53100000  *  137.83300000  * -49.86900000  *
   911       H         73.36600000  *  136.47900000  * -48.85100000  *
   912       C         73.64700000  *  135.85900000  * -50.81700000  *
   913       H         73.29800000  *  134.87100000  * -50.67200000  *
   914       H         73.21600000  *  136.10500000  * -51.78700000  *
   915       C         75.11700000  *  136.08400000  * -50.99900000  *
   916       H         75.61200000  *  135.95400000  * -50.03300000  *
   917       H         75.49500000  *  135.33200000  * -51.69500000  *
   918       N         75.35800000  *  137.42700000  * -51.50600000  *
   919       H         74.62100000  *  138.12700000  * -51.38200000  *
   920       C         76.54800000  *  137.85900000  * -51.89000000  *
   921       N         77.59300000  *  137.04400000  * -51.81500000  *
   922       H         77.44700000  *  136.21200000  * -51.26800000  *
   923       H         78.49900000  *  137.44300000  * -51.92100000  *
   924       N         76.69000000  *  139.09300000  * -52.35600000  *
   925       H         75.86000000  *  139.69200000  * -52.33800000  *
   926       H         77.56200000  *  139.47800000  * -52.67100000  *
   927       C         71.03700000  *  137.42400000  * -48.54200000  *
   928       O         71.18700000  *  136.76800000  * -47.50900000  *
   929       N         70.43700000  *  138.60400000  * -48.51600000  *
   930       H         70.32800000  *  139.16900000  * -49.34700000  *
   931       C         69.93700000  *  139.07600000  * -47.23100000  *
   932       H         69.76500000  *  138.24900000  * -46.54100000  *
   933       C         70.93500000  *  140.04200000  * -46.56200000  *
   934       H         71.90900000  *  139.56600000  * -46.50900000  *
   935       H         71.04400000  *  140.94300000  * -47.17900000  *
   936       C         70.51300000  *  140.42800000  * -45.14700000  *
   937       O         70.17200000  *  139.51500000  * -44.35500000  *
   938       O         70.51000000  *  141.64400000  * -44.82500000  *
   939       C         68.58700000  *  139.73400000  * -47.37800000  *
   940       O         68.35000000  *  140.81000000  * -46.83500000  *
   941       N         67.68700000  *  139.08300000  * -48.11000000  *
   942       H         67.94300000  *  138.20800000  * -48.54500000  *
   943       C         66.35900000  *  139.64900000  * -48.29900000  *
   944       H         66.47700000  *  140.66700000  * -48.65900000  *
   945       C         65.54600000  *  138.81300000  * -49.28800000  *
   946       H         65.58300000  *  137.78400000  * -48.94500000  *
   947       H         64.50600000  *  139.14000000  * -49.25500000  *
   948       C         66.02700000  *  138.85500000  * -50.73600000  *
   949       H         67.06400000  *  138.52800000  * -50.78200000  *
   950       C         65.17300000  *  137.91700000  * -51.58300000  *
   951       H         64.15900000  *  138.30500000  * -51.68800000  *
   952       H         65.63400000  *  137.80700000  * -52.55000000  *
   953       H         65.13400000  *  136.93500000  * -51.11000000  *
   954       C         65.92100000  *  140.27700000  * -51.26400000  *
   955       H         66.42000000  *  140.99600000  * -50.63300000  *
   956       H         66.44200000  *  140.27500000  * -52.20900000  *
   957       H         64.88200000  *  140.56100000  * -51.39700000  *
   958       C         65.59400000  *  139.73400000  * -46.98200000  *
   959       O         65.58600000  *  138.79200000  * -46.16600000  *
   960       N         64.95600000  *  140.85500000  * -46.74600000  *
   961       H         64.96500000  *  141.58600000  * -47.44400000  *
   962       C         64.16700000  *  141.06300000  * -45.54700000  *
   963       H         63.55700000  *  140.17100000  * -45.40500000  *
   964       C         65.04700000  *  141.23000000  * -44.28800000  *
   965       H         64.41100000  *  141.30200000  * -43.40500000  *
   966       H         65.64000000  *  140.32400000  * -44.16500000  *
   967       C         65.99000000  *  142.44000000  * -44.30000000  *
   968       H         66.40400000  *  142.57600000  * -45.29700000  *
   969       H         65.44000000  *  143.33600000  * -44.01500000  *
   970       C         67.14200000  *  142.18400000  * -43.32200000  *
   971       H         66.74100000  *  141.92300000  * -42.34000000  *
   972       H         67.72100000  *  141.33700000  * -43.70000000  *
   973       C         68.05300000  *  143.40700000  * -43.18400000  *
   974       H         68.16000000  *  143.88400000  * -44.16300000  *
   975       H         67.57200000  *  144.12600000  * -42.51000000  *
   976       N         69.38700000  *  143.00600000  * -42.66500000  *
   977       H         69.87900000  *  142.42900000  * -43.36200000  *
   978       H         69.95400000  *  143.81500000  * -42.44600000  *
   979       H         69.29300000  *  142.46300000  * -41.81700000  *
   980       C         63.26400000  *  142.22800000  * -45.83900000  *
   981       O         63.62200000  *  143.07100000  * -46.66200000  *
   982       N         62.11200000  *  142.30300000  * -45.18600000  *
   983       C         61.62600000  *  141.34600000  * -44.17100000  *
   984       H         62.10000000  *  141.53200000  * -43.20900000  *
   985       H         61.74500000  *  140.31100000  * -44.47600000  *
   986       C         60.16400000  *  141.66900000  * -44.09500000  *
   987       H         59.73700000  *  141.34900000  * -43.14300000  *
   988       H         59.63700000  *  141.20600000  * -44.93200000  *
   989       C         60.16000000  *  143.18900000  * -44.24800000  *
   990       H         60.51600000  *  143.64900000  * -43.32100000  *
   991       H         59.20200000  *  143.56500000  * -44.57400000  *
   992       C         61.14500000  *  143.38000000  * -45.40300000  *
   993       H         60.63400000  *  143.20500000  * -46.34500000  *
   994       C         61.77100000  *  144.77100000  * -45.44800000  *
   995       O         61.39200000  *  145.58400000  * -46.27300000  *
   996       N         62.73200000  *  145.08700000  * -44.56200000  *
   997       H         62.97500000  *  144.39800000  * -43.86500000  *
   998       C         63.45400000  *  146.38300000  * -44.54100000  *
   999       H         62.72400000  *  147.19000000  * -44.45800000  *
  1000       C         64.39800000  *  146.45300000  * -43.32600000  *
  1001       H         65.08200000  *  145.60500000  * -43.35700000  *
  1002       H         64.99400000  *  147.36400000  * -43.40600000  *
  1003       C         63.68500000  *  146.48800000  * -41.96800000  *
  1004       H         62.99100000  *  147.33000000  * -41.95600000  *
  1005       H         63.12100000  *  145.56800000  * -41.82700000  *
  1006       C         64.67600000  *  146.62500000  * -40.81000000  *
  1007       O         65.69400000  *  145.94900000  * -40.74400000  *
  1008       N         64.42200000  *  147.48800000  * -39.85100000  *
  1009       H         65.08600000  *  147.56800000  * -39.09400000  *
  1010       H         63.61200000  *  148.08700000  * -39.89000000  *
  1011       C         64.30200000  *  146.66600000  * -45.79900000  *
  1012       O         64.53600000  *  147.82100000  * -46.14500000  *
  1013       N         64.76600000  *  145.61600000  * -46.48100000  *
  1014       H         64.45500000  *  144.69900000  * -46.19300000  *
  1015       C         65.54000000  *  145.67700000  * -47.72200000  *
  1016       H         66.10900000  *  146.60900000  * -47.75500000  *
  1017       C         66.54500000  *  144.49500000  * -47.76000000  *
  1018       H         66.04400000  *  143.57300000  * -47.47900000  *
  1019       H         66.90600000  *  144.36200000  * -48.77700000  *
  1020       C         67.78500000  *  144.68500000  * -46.89500000  *
  1021       O         68.09500000  *  145.76700000  * -46.42800000  *
  1022       N         68.54300000  *  143.64200000  * -46.63600000  *
  1023       H         69.41300000  *  143.79600000  * -46.15500000  *
  1024       H         68.29100000  *  142.69100000  * -46.89300000  *
  1025       C         64.63200000  *  145.69800000  * -48.97000000  *
  1026       O         65.15200000  *  145.60900000  * -50.08100000  *
  1027       N         63.30000000  *  145.80300000  * -48.83400000  *
  1028       H         62.89500000  *  145.87300000  * -47.90900000  *
  1029       C         62.40600000  *  145.84500000  * -49.97900000  *
  1030       H         62.94700000  *  145.74800000  * -50.91900000  *
  1031       C         61.36900000  *  144.72100000  * -49.88900000  *
  1032       H         60.76900000  *  144.86100000  * -48.99200000  *
  1033       H         60.74400000  *  144.79800000  * -50.77200000  *
  1034       C         62.03600000  *  143.32400000  * -49.85900000  *
  1035       H         62.67100000  *  143.24000000  * -48.98800000  *
  1036       C         61.00200000  *  142.26000000  * -49.77100000  *
  1037       H         60.24600000  *  142.42800000  * -50.53400000  *
  1038       H         61.44700000  *  141.27100000  * -49.89000000  *
  1039       H         60.52000000  *  142.31900000  * -48.79800000  *
  1040       C         62.89500000  *  143.12600000  * -51.08400000  *
  1041       H         63.82900000  *  143.66800000  * -50.95600000  *
  1042       H         63.12900000  *  142.06900000  * -51.20900000  *
  1043       H         62.39300000  *  143.49200000  * -51.96600000  *
  1044       C         61.76300000  *  147.21800000  * -49.95200000  *
  1045       O         61.15000000  *  147.60200000  * -48.96600000  *
  1046       N         61.89600000  *  147.98600000  * -51.02700000  *
  1047       H         62.39000000  *  147.61400000  * -51.83300000  *
  1048       C         61.43900000  *  149.37500000  * -51.06500000  *
  1049       H         61.05800000  *  149.67900000  * -50.09200000  *
  1050       C         62.59700000  *  150.29800000  * -51.42200000  *
  1051       H         62.92900000  *  150.06600000  * -52.43500000  *
  1052       H         62.21700000  *  151.31700000  * -51.40100000  *
  1053       C         63.79600000  *  150.19500000  * -50.47800000  *
  1054       H         64.24500000  *  149.20700000  * -50.55500000  *
  1055       C         64.79900000  *  151.23700000  * -50.93200000  *
  1056       H         64.42900000  *  152.22600000  * -50.67700000  *
  1057       H         65.75000000  *  151.04600000  * -50.44700000  *
  1058       H         64.94400000  *  151.19600000  * -52.00600000  *
  1059       C         63.44500000  *  150.46900000  * -49.01700000  *
  1060       H         62.83400000  *  149.65600000  * -48.63700000  *
  1061       H         64.35000000  *  150.51300000  * -48.41700000  *
  1062       H         62.90000000  *  151.40900000  * -48.92600000  *
  1063       C         60.31400000  *  149.55200000  * -52.06200000  *
  1064       O         60.40600000  *  149.08700000  * -53.18500000  *
  1065       N         59.26800000  *  150.25600000  * -51.67700000  *
  1066       H         59.36500000  *  150.76300000  * -50.80000000  *
  1067       C         58.08300000  *  150.44700000  * -52.50800000  *
  1068       H         58.17300000  *  149.92400000  * -53.45700000  *
  1069       C         56.81900000  *  149.90600000  * -51.78600000  *
  1070       H         55.94300000  *  150.08700000  * -52.41500000  *
  1071       C         56.95000000  *  148.40400000  * -51.54300000  *
  1072       H         57.75300000  *  148.18300000  * -50.83300000  *
  1073       H         56.01300000  *  148.00400000  * -51.15200000  *
  1074       H         57.15800000  *  147.91500000  * -52.48900000  *
  1075       C         56.64700000  *  150.60600000  * -50.43300000  *
  1076       H         57.48200000  *  150.38000000  * -49.77500000  *
  1077       H         56.60500000  *  151.68300000  * -50.57600000  *
  1078       C         55.37000000  *  150.22200000  * -49.68600000  *
  1079       H         55.48900000  *  149.24800000  * -49.22200000  *
  1080       H         55.17000000  *  150.96500000  * -48.91000000  *
  1081       H         54.52900000  *  150.16800000  * -50.38500000  *
  1082       C         57.87200000  *  151.93000000  * -52.81700000  *
  1083       O         58.38200000  *  152.79400000  * -52.10000000  *
  1084       N         57.14900000  *  152.22000000  * -53.89700000  *
  1085       H         56.70500000  *  151.48200000  * -54.43300000  *
  1086       C         56.84100000  *  153.60200000  * -54.22700000  *
  1087       H         57.16800000  *  154.27800000  * -53.43100000  *
  1088       C         57.50400000  *  154.05300000  * -55.54100000  *
  1089       H         57.21800000  *  155.07000000  * -55.80500000  *
  1090       H         58.58200000  *  154.04400000  * -55.38800000  *
  1091       C         57.19300000  *  153.14600000  * -56.70100000  *
  1092       O         56.13500000  *  152.53500000  * -56.76400000  *
  1093       N         58.11500000  *  153.07200000  * -57.64100000  *
  1094       H         57.83300000  *  152.61700000  * -58.48600000  *
  1095       H         58.88600000  *  153.71500000  * -57.62100000  *
  1096       C         55.33100000  *  153.75800000  * -54.32100000  *
  1097       O         54.57600000  *  152.79900000  * -54.11400000  *
  1098       N         54.88500000  *  154.97100000  * -54.62100000  *
  1099       H         55.52100000  *  155.73600000  * -54.79200000  *
  1100       C         53.46400000  *  155.24700000  * -54.72300000  *
  1101       H         52.92700000  *  154.82600000  * -53.87200000  *
  1102       C         53.20900000  *  156.78000000  * -54.75500000  *
  1103       H         52.16900000  *  156.98000000  * -55.02600000  *
  1104       C         53.47800000  *  157.39700000  * -53.41000000  *
  1105       H         54.52100000  *  157.25500000  * -53.13000000  *
[...]
 1005  H   0.85407
 1006  C   1.06731   0.81282   0.74975   0.79854
 1007  O   1.88316   1.36267   1.53778   1.79848
 1008  N   1.52749   1.34754   1.42986   1.32778
 1009  H   0.66636
 1010  H   0.69207
 1011  C   1.08370   0.76943   0.79227   0.81929
 1012  O   1.88913   1.61930   1.28499   1.71087
 1013  N   1.55293   1.52358   1.20281   1.30505
 1014  H   0.67260
 1015  C   1.07151   0.94453   1.09318   0.81851
 1016  H   0.80082
 1017  C   1.07003   1.05379   1.08942   1.16160
 1018  H   0.83677
 1019  H   0.80610
 1020  C   1.06056   0.81221   0.77936   0.77023
 1021  O   1.88022   1.75199   1.37543   1.58441
 1022  N   1.53348   1.31515   1.19628   1.60141
 1023  H   0.66811
 1024  H   0.65804
 1025  C   1.09094   0.78509   0.71180   0.85303
 1026  O   1.87743   1.77286   1.62476   1.38867
 1027  N   1.54102   1.12651   1.65958   1.18404
 1028  H   0.64989
 1029  C   1.06942   0.96908   0.98272   0.97419
 1030  H   0.81475
 1031  C   1.06728   1.06558   0.99407   1.17578
 1032  H   0.83272
 1033  H   0.84893
 1034  C   1.04098   1.01078   0.95031   1.05999
 1035  H   0.85384
 1036  C   1.04882   1.12528   1.11270   1.17372
 1037  H   0.84844
 1038  H   0.85732
 1039  H   0.86078
 1040  C   1.05135   1.14414   1.16466   1.10181
 1041  H   0.84332
 1042  H   0.86462
 1043  H   0.85152
 1044  C   1.07634   0.75361   0.84243   0.75914
 1045  O   1.87366   1.52667   1.79185   1.43731
 1046  N   1.54600   1.55886   1.17375   1.24892
 1047  H   0.64953
 1048  C   1.06462   0.98592   0.82627   1.10341
 1049  H   0.80929
 1050  C   1.06395   1.02783   1.10694   1.11976
 1051  H   0.85150
 1052  H   0.84001
 1053  C   1.04816   0.96800   1.06406   0.97681
 1054  H   0.86897
 1055  C   1.05344   1.12481   1.13494   1.15706
 1056  H   0.84364
 1057  H   0.85950
 1058  H   0.86317
 1059  C   1.05468   1.18023   1.18088   1.03605
 1060  H   0.83663
 1061  H   0.84891
 1062  H   0.84426
 1063  C   1.07429   0.79997   0.74356   0.81551
 1064  O   1.86743   1.83450   1.63158   1.34808
 1065  N   1.54082   1.19186   1.46240   1.29700
 1066  H   0.64147
 1067  C   1.07625   0.89326   1.00391   1.04047
 1068  H   0.81383
 1069  C   1.06491   1.01333   0.99084   1.02301
 1070  H   0.84065
 1071  C   1.05436   1.18021   1.03669   1.17307
 1072  H   0.84458
 1073  H   0.84616
 1074  H   0.85565
 1075  C   1.05408   1.07394   1.11968   1.02959
 1076  H   0.84527
 1077  H   0.86121
 1078  C   1.05237   1.08505   1.15989   1.13107
 1079  H   0.84627
 1080  H   0.87647
 1081  H   0.84775
 1082  C   1.08713   0.74163   0.88940   0.74206
 1083  O   1.88717   1.56824   1.57646   1.55242
 1084  N   1.54366   1.50804   1.14248   1.34167
 1085  H   0.63879
 1086  C   1.06114   0.99418   0.88807   1.01527
 1087  H   0.80468
 1088  C   1.07111   1.17456   1.11313   1.04413
 1089  H   0.83061
 1090  H   0.81785
 1091  C   1.06763   0.77863   0.79275   0.82238
 1092  O   1.88781   1.30650   1.50529   1.80285
 1093  N   1.53692   1.31214   1.52200   1.27973
 1094  H   0.69252
 1095  H   0.69578
 1096  C   1.08073   0.88485   0.77755   0.75112
 1097  O   1.89443   1.62437   1.43463   1.52631
 1098  N   1.54115   1.14498   1.19513   1.69380
 1099  H   0.67731
 1100  C   1.08536   0.83329   1.04066   1.09592
 1101  H   0.80882
 1102  C   1.08454   0.98671   0.88319   0.88924
 1103  H   0.85786
 1104  C   1.05305   1.18556   1.17290   1.05399
 1105  H   0.83927
 1106  H   0.83163
 1107  H   0.83358
 1108  O   1.85137   1.58118   1.82076   1.32285
 1109  H   0.67537
 1110  C   1.07462   0.81030   0.77002   0.81925
 1111  O   1.88600   1.23146   1.61609   1.81380
 1112  N   1.53433   1.18204   1.58164   1.22144
 1113  H   0.69157
 1114  C   1.05384   1.13283   1.13995   0.88751
 1115  H   0.84104
 1116  H   0.87155
 1117  H   0.83527
 1118  H   0.86773
 1119  C   1.10016   0.76482   0.75354   0.92055
 1120  O   1.88717   1.67003   1.57185   1.45702
 1121  N   1.54652   1.44411   1.35125   1.20822
 1122  H   0.67418
 1123  C   1.08030   0.92952   1.08576   0.92410
 1124  H   0.80987
 1125  C   1.07313   1.07887   0.95449   0.98275
 1126  H   0.84457
 1127  C   1.05753   1.18817   1.08030   1.12360
 1128  H   0.83766
 1129  H   0.85394
 1130  H   0.85845
 1131  C   1.05397   1.07456   1.13485   1.01842
 1132  H   0.85575
 1133  H   0.85305
 1134  C   1.04893   1.14431   1.14765   1.09038
 1135  H   0.85580
 1136  H   0.85932
 1137  H   0.84937
 1138  C   1.07504   0.84251   0.74912   0.79225
 1139  O   1.88226   1.88198   1.48228   1.36298
 1140  N   1.54659   1.09811   1.54198   1.34260
 1141  H   0.63177
 1142  C   1.06855   0.84986   1.04263   1.03918
 1143  H   0.81383
 1144  C   1.05970   1.08877   1.05668   1.08969
 1145  H   0.83261
 1146  H   0.84597
 1147  C   1.05091   1.08866   1.03291   1.08359
 1148  H   0.85889
 1149  H   0.83997
 1150  C   1.06114   1.07586   1.05766   1.09655
 1151  H   0.82471
 1152  H   0.82578
 1153  C   1.08155   1.03065   0.99356   1.07591
 1154  H   0.83591
 1155  H   0.82763
 1156  N   1.46382   1.23171   1.24314   1.25596
 1157  H   0.66636
 1158  H   0.69415
 1159  H   0.73042
 1160  C   1.07954   0.77847   0.75117   0.82872
 1161  O   1.88196   1.76755   1.68878   1.28789
 1162  N   1.54484   1.33070   1.42918   1.22902
 1163  H   0.64221
 1164  C   1.06987   0.91888   0.95619   1.02969
 1165  H   0.83137
 1166  C   1.06261   1.09797   1.02031   1.13382
 1167  H   0.83435
 1168  H   0.84785
 1169  C   1.05389   1.07593   0.96034   0.95828
 1170  H   0.85440
 1171  C   1.06150   1.15498   1.13913   1.09670
 1172  H   0.86235
 1173  H   0.85292
 1174  H   0.84792
 1175  C   1.05712   1.17427   1.13646   1.09488
 1176  H   0.85055
 1177  H   0.85416
 1178  H   0.86035
 1179  C   1.08597   0.79159   0.80007   0.75834
 1180  O   1.88125   1.63240   1.59739   1.53631
 1181  N   1.54387   1.36957   1.43667   1.16160
 1182  H   0.64284
 1183  C   1.06677   0.91554   0.93013   1.04738
 1184  H   0.83231
 1185  C   1.05904   1.16107   1.07879   1.16068
 1186  H   0.81467
 1187  H   0.85292
 1188  H   0.82203
 1189  C   1.08905   0.78680   0.78666   0.74563
 1190  O   1.87411   1.84288   1.35837   1.57629
 1191  N   1.54725   1.17336   1.32935   1.49616
 1192  H   0.68706
 1193  C   1.07458   0.87246   1.07950   0.94165
 1194  H   0.82139
 1195  C   1.07934   1.14274   1.19179   0.99344
 1196  H   0.80887
 1197  H   0.82529
 1198  C   1.07116   0.74252   0.72502   0.68965
 1199  O   1.88673   1.77593   1.46449   1.59690
 1200  O   1.87127   1.71063   1.50390   1.79664
 1201  C   1.09016   0.81940   0.79682   0.74436
 1202  O   1.88739   1.27736   1.81380   1.56118
 1203  N   1.56707   1.29361   1.16773   1.54490
 1204  H   0.67822
 1205  C   1.07925   1.01599   0.91920   0.95379
 1206  H   0.84202
 1207  C   1.05582   1.07966   1.20362   0.96003
 1208  H   0.81440
 1209  H   0.81824
 1210  C   1.07386   0.97118   0.97737   0.97032
 1211  C   1.08857   1.03609   1.04223   1.01388
 1212  H   0.84252
 1213  C   1.08460   0.99249   1.05622   1.01774
 1214  H   0.85964
 1215  C   1.08688   1.05798   0.99253   1.02879
 1216  H   0.84976
 1217  C   1.08967   1.03713   1.03355   0.98377
 1218  H   0.83049
 1219  C   1.08707   0.98505   1.05968   1.01965
 1220  H   0.84170
 1221  C   1.09116   0.80353   0.77351   0.76177
 1222  O   1.88485   1.44745   1.56496   1.71453
 1223  N   1.53968   1.41473   1.43609   1.13607
 1224  H   0.68052
 1225  C   1.06913   0.98072   1.07237   0.98785
 1226  H   0.80647
 1227  H   0.80334
 1228  C   1.08083   0.82940   0.77269   0.69524
 1229  O   1.87542   1.84486   1.33284   1.62473
 1230  N   1.55816   1.29716   1.23662   1.44482
 1231  H   0.66914
 1232  C   1.07756   0.89940   1.03780   0.96501
 1233  H   0.84593
 1234  C   1.06840   1.11298   0.94606   1.17843
 1235  H   0.83327
 1236  H   0.83362
 1237  C   1.05204   1.03096   0.96169   1.01134
 1238  H   0.86036
 1239  C   1.05579   1.16947   1.06602   1.16116
 1240  H   0.85681
 1241  H   0.84132
 1242  H   0.85873
 1243  C   1.05574   1.17275   1.18973   1.04472
 1244  H   0.84437
 1245  H   0.83466
 1246  H   0.86074
 1247  C   1.09753   0.86695   0.76986   0.74258
 1248  O   1.88392   1.31071   1.77554   1.56647
 1249  N   1.58473   1.28174   1.24029   1.52967
 1250  H   0.66414
 1251  C   1.06978   0.96053   0.99043   0.96090
 1252  H   0.82540
 1253  C   1.05735   1.14285   1.09962   1.16304
 1254  H   0.86431
 1255  H   0.82011
 1256  H   0.81264
 1257  C   1.07844   0.84917   0.77011   0.78391
 1258  O   1.89131   1.45609   1.52698   1.62126
 1259  N   1.54613   1.31374   1.54421   1.15304
 1260  H   0.70168
 1261  C   1.06030   0.93048   1.14799   1.09022
 1262  H   0.81692
 1263  H   0.85533
 1264  H   0.84416
 1265  H   0.88492
 1266  C   1.09730   0.75865   0.82378   0.87000
 1267  O   1.89047   1.46981   1.31215   1.86344
 1268  N   1.54399   1.50190   1.35454   1.15136
 1269  H   0.69058
 1270  C   1.07225   1.10690   0.96336   0.82283
 1271  H   0.80370
 1272  C   1.05763   1.09506   1.03352   1.14044
 1273  H   0.84498
 1274  H   0.83338
 1275  C   1.06478   0.97631   0.94819   0.96791
 1276  C   1.08162   1.01302   0.99075   1.05622
 1277  H   0.84699
 1278  C   1.08048   1.03440   1.02454   0.99484
 1279  H   0.85490
 1280  C   1.07840   1.00791   1.05306   1.02460
 1281  H   0.86076
 1282  C   1.07794   1.02546   1.00616   1.05012
 1283  H   0.86376
 1284  C   1.08013   1.06138   1.02614   1.00044
 1285  H   0.84853
 1286  C   1.08303   0.77321   0.80308   0.81750
 1287  O   1.89076   1.50351   1.62921   1.48153
 1288  N   1.53927   1.18102   1.36148   1.44759
 1289  H   0.68133
 1290  C   1.05518   1.13031   0.97654   0.99564
 1291  H   0.83735
 1292  H   0.79699
 1293  C   1.07876   0.79186   0.76080   0.80368
 1294  O   1.88149   1.53572   1.37391   1.83982
 1295  N   1.53685   1.41214   1.37746   1.18565
 1296  H   0.67127
 1297  C   1.07318   1.00505   1.18161   0.89318
 1298  H   0.82229
 1299  H   0.81568
 1300  C   1.07935   0.79704   0.76106   0.81345
 1301  O   1.89027   1.46233   1.49031   1.68757
 1302  N   1.56499   1.46262   1.16773   1.27106
 1303  C   1.06816   1.06376   0.87580   1.05129
 1304  H   0.84709
 1305  H   0.85208
 1306  C   1.05740   1.03798   1.13833   1.06203
 1307  H   0.83760
 1308  H   0.80313
 1309  C   1.05939   1.09195   0.99433   1.15220
 1310  H   0.85773
 1311  H   0.83258
 1312  C   1.07065   1.04488   0.98629   0.88088
 1313  H   0.83316
 1314  C   1.09105   0.79135   0.79476   0.82265
 1315  O   1.89226   1.35917   1.36137   1.85865
 1316  N   1.54604   1.41346   1.50908   1.12667
 1317  H   0.68438
 1318  C   1.07865   1.04458   1.12163   0.88126
 1319  H   0.80266
 1320  H   0.82092
 1321  C   1.08602   0.82896   0.73306   0.78212
 1322  O   1.88605   1.69487   1.71533   1.32079
 1323  N   1.55282   1.23533   1.41523   1.34489
 1324  H   0.68960
 1325  C   1.07643   0.85778   1.06005   0.98286
 1326  H   0.82250
 1327  C   1.05904   1.17700   1.07694   0.96471
 1328  H   0.84766
 1329  H   0.82215
 1330  C   1.05758   1.11781   1.05750   1.05041
 1331  H   0.83366
 1332  H   0.87452
 1333  C   1.06929   1.10897   1.11897   0.74624
 1334  H   0.83590
 1335  H   0.80767
 1336  N   1.53392   1.59306   1.27314   1.10589
 1337  H   0.67032
 1338  C   0.97633   0.84036   0.80650   0.79174
 1339  N   1.49889   1.55645   1.25210   1.24775
 1340  H   0.64598
 1341  H   0.65717
 1342  N   1.50165   1.59032   1.35400   1.14265
 1343  H   0.66380
 1344  H   0.65921
 1345  C   1.08037   0.77733   0.78192   0.84596
 1346  O   1.89141   1.44945   1.63104   1.54539
 1347  N   1.54359   1.55338   1.19532   1.24357
 1348  H   0.68992
 1349  C   1.09125   1.00704   1.01008   0.90931
 1350  H   0.79894
 1351  C   1.08426   0.92136   0.92502   0.88368
 1352  H   0.85101
 1353  C   1.05828   1.10824   1.12725   1.19888
 1354  H   0.82638
 1355  H   0.82820
 1356  H   0.84099
 1357  O   1.84236   1.59403   1.64188   1.56380
 1358  H   0.60966
 1359  C   1.07957   0.81179   0.79597   0.76716
 1360  O   1.88780   1.53136   1.79409   1.36708
 1361  N   1.55441   1.33114   1.29534   1.37726
 1362  H   0.64859
 1363  C   1.07361   0.97540   0.92479   1.00738
 1364  H   0.83188
 1365  C   1.05676   1.09370   1.06709   1.08359
 1366  H   0.85259
 1367  H   0.83735
 1368  C   1.05779   0.96982   0.97378   1.08293
 1369  C   1.08222   0.97543   1.07675   1.00121
 1370  H   0.85073
 1371  C   1.08710   1.08379   0.99762   0.99148
 1372  H   0.79751
 1373  C   1.06898   0.83301   0.89473   0.86963
 1374  O   1.84111   1.46255   1.54320   1.69817
 1375  H   0.60260
 1376  C   1.07156   0.99555   1.09237   1.08286
 1377  H   0.85456
 1378  C   1.07703   1.05322   1.00329   1.02313
 1379  H   0.87680
 1380  C   1.08179   0.79319   0.75845   0.82351
 1381  O   1.88960   1.35953   1.51324   1.81044
 1382  N   1.55298   1.20459   1.61330   1.15002
 1383  H   0.65916
 1384  C   1.08606   1.09436   1.05545   0.83669
 1385  H   0.85000
 1386  C   1.08034   0.85369   0.86911   1.00735
 1387  H   0.87732
 1388  C   1.05615   1.09535   1.13706   1.18960
 1389  H   0.83215
 1390  H   0.85544
 1391  H   0.85278
 1392  O   1.84992   1.30833   1.76155   1.64744
 1393  H   0.59943
 1394  C   1.08837   0.86115   0.77068   0.80797
 1395  O   1.89636   1.23744   1.65261   1.60058
 1396  N   1.54728   1.20479   1.30474   1.51987
 1397  H   0.69399
 1398  C   1.06723   1.01889   1.01434   1.05307
 1399  H   0.88150
 1400  H   0.84499
 1401  C   1.06967   0.85175   0.75636   0.78806
 1402  O   1.89318   1.66780   1.37935   1.51066
 1403  N   1.55718   1.14833   1.53539   1.33778
 1404  H   0.68923
 1405  C   1.07211   0.82292   0.97436   1.14117
 1406  H   0.83269
 1407  C   1.05676   1.16641   1.00938   1.02686
 1408  H   0.84745
 1409  H   0.83027
 1410  C   1.06022   1.20419   0.98287   1.16359
 1411  H   0.83426
 1412  H   0.83550
 1413  C   1.06236   0.73972   0.72272   0.73406
 1414  O   1.89254   1.43041   1.79834   1.60744
 1415  O   1.88378   1.53446   1.58142   1.81747
 1416  C   1.09483   0.76525   0.86734   0.74692
 1417  O   1.88699   1.65387   1.65716   1.40297
 1418  N   1.54801   1.31566   1.19228   1.48970
 1419  H   0.67108
 1420  C   1.07025   1.04649   0.86924   1.02925
 1421  H   0.87175
 1422  C   1.05523   1.03124   1.04102   0.95591
 1423  H   0.82483
 1424  C   1.05492   1.16610   1.03672   1.20500
 1425  H   0.86114
 1426  H   0.84200
 1427  H   0.82110
 1428  C   1.05352   1.16788   1.15511   1.07903
 1429  H   0.85323
 1430  H   0.83986
 1431  H   0.87289
 1432  C   1.07379   0.79243   0.74881   0.84329
 1433  O   1.88972   1.32217   1.58694   1.74387
 1434  N   1.53880   1.27322   1.49322   1.21305
 1435  H   0.68169
 1436  C   1.07439   1.00914   1.04586   0.86616
 1437  H   0.84273
 1438  C   1.06135   1.03045   1.01679   0.97987
 1439  H   0.83877
 1440  C   1.05313   1.18231   1.10078   1.10936
 1441  H   0.83357
 1442  H   0.84917
 1443  H   0.86523
 1444  C   1.05652   1.19165   1.16285   1.04364
 1445  H   0.86057
 1446  H   0.83752
 1447  H   0.83014
 1448  C   1.08289   0.80950   0.79867   0.76223
 1449  O   1.88748   1.79483   1.44262   1.43272
 1450  N   1.53612   1.24352   1.43827   1.31509
 1451  H   0.68518
 1452  C   1.07803   0.90319   0.96827   1.14052
 1453  H   0.81616
 1454  C   1.07867   0.93203   0.84241   0.98915
 1455  H   0.87364
 1456  C   1.05580   1.09984   1.13381   1.18164
 1457  H   0.84023
 1458  H   0.82842
 1459  H   0.84551
 1460  O   1.85210   1.45292   1.47047   1.77152
 1461  H   0.66549
 1462  C   1.07528   0.76589   0.82452   0.81387
 1463  O   1.88676   1.45238   1.86781   1.32194
 1464  N   1.53705   1.58459   1.12337   1.28793
 1465  H   0.68728
 1466  C   1.05224   1.16018   0.87610   1.13281
 1467  H   0.82182
 1468  H   0.85354
 1469  H   0.86626
 1470  H   0.86955
 1471  C   1.10169   0.76415   0.81174   0.89546
 1472  O   1.88719   1.42755   1.33469   1.87145
 1473  N   1.55040   1.52611   1.36325   1.14173
 1474  H   0.68725
 1475  C   1.07791   1.09043   1.02965   0.79366
 1476  H   0.81268
 1477  C   1.05937   1.13171   1.00678   1.09919
 1478  H   0.81550
 1479  H   0.82648
 1480  C   1.06835   0.97630   0.98730   0.99789
 1481  C   1.08107   0.99046   1.01959   1.00401
 1482  H   0.84549
 1483  C   1.07574   1.10241   1.04746   1.06480
 1484  H   0.82523
 1485  C   1.07248   0.88871   0.88825   0.88310
 1486  O   1.84178   1.33086   1.60078   1.72832
 1487  H   0.65405
 1488  C   1.07528   0.98855   1.10180   1.09829
 1489  H   0.83449
 1490  C   1.08716   1.07420   0.98143   0.97215
 1491  H   0.84080
 1492  C   1.08201   0.80329   0.78089   0.81051
 1493  O   1.89298   1.77876   1.64262   1.23664
 1494  N   1.53512   1.26485   1.54069   1.17727
 1495  H   0.69019
 1496  C   1.05805   0.92150   1.08518   1.15570
 1497  H   0.83215
 1498  H   0.85596
 1499  H   0.85022
 1500  H   0.86595
 1501  C   1.10297   0.82979   0.87808   0.75943
 1502  O   1.89043   1.34352   1.83484   1.42344
 1503  N   1.55422   1.37693   1.20571   1.47145
 1504  H   0.69153
 1505  C   1.07914   0.97654   0.84380   1.12477
 1506  H   0.81511
 1507  C   1.05897   0.98042   1.00853   1.06733
 1508  H   0.86931
 1509  C   1.05192   1.15809   1.05407   1.18182
 1510  H   0.83705
 1511  H   0.85313
 1512  H   0.83586
 1513  C   1.04805   1.00405   1.12232   1.09028
 1514  H   0.86271
 1515  H   0.86412
 1516  C   1.04890   1.11928   1.13512   1.13909
 1517  H   0.85390
 1518  H   0.85514
 1519  H   0.85416
 1520  C   1.07241   0.86793   0.76272   0.76282
 1521  O   1.88564   1.52998   1.48960   1.60565
 1522  N   1.54256   1.16438   1.44799   1.40499
 1523  H   0.70093
 1524  C   1.06816   0.88838   1.14589   1.09858
 1525  H   0.85018
 1526  H   0.86149
 1527  H   0.82833
 1528  H   0.86136
 1529  C   1.10311   0.85216   0.75654   0.84820
 1530  O   1.89239   1.78033   1.57473   1.31068
 1531  N   1.53868   1.27055   1.41796   1.30155
 1532  H   0.68186
 1533  C   1.05771   0.88011   1.04651   1.01929
 1534  H   0.82202
 1535  C   1.06045   1.03578   1.11731   1.10576
 1536  H   0.84097
 1537  H   0.84470
 1538  C   1.04473   0.99073   0.96527   1.06028
 1539  H   0.87898
 1540  C   1.05426   1.16056   1.06591   1.18099
 1541  H   0.84389
 1542  H   0.84594
 1543  H   0.85119
 1544  C   1.05256   1.12485   1.16991   1.10981
 1545  H   0.85985
 1546  H   0.84647
 1547  H   0.84035
 1548  C   1.08029   0.74505   0.87793   0.77729
 1549  O   1.88743   1.52368   1.42209   1.71257
 1550  N   1.54038   1.59668   1.20233   1.20264
 1551  H   0.67699
 1552  C   1.06910   1.04490   0.93968   0.93110
 1553  H   0.81858
 1554  C   1.05607   1.16716   1.05692   1.01565
 1555  H   0.83464
 1556  H   0.83401
 1557  C   1.05729   1.12794   1.10602   1.02232
 1558  H   0.84107
 1559  H   0.82398
 1560  C   1.06743   1.16648   0.93357   0.90776
 1561  H   0.81888
 1562  H   0.84019
 1563  N   1.52345   1.14357   1.42237   1.39735
 1564  H   0.66661
 1565  C   0.99030   0.79731   0.80770   0.81379
 1566  N   1.51453   1.10709   1.46262   1.48450
 1567  H   0.64547
 1568  H   0.65995
 1569  N   1.50480   1.23327   1.41594   1.42866
 1570  H   0.65956
 1571  H   0.65735
 1572  C   1.07526   0.86266   0.78974   0.77467
 1573  O   1.88854   1.59587   1.59670   1.52630
 1574  N   1.53735   1.18977   1.25222   1.49126
 1575  H   0.67727
 1576  C   1.08136   0.82421   1.13547   1.04253
 1577  H   0.82618
 1578  C   1.05988   1.15913   1.08176   0.99862
 1579  H   0.84385
 1580  H   0.84841
 1581  C   1.04874   1.08006   0.97195   0.94682
 1582  H   0.87055
 1583  C   1.05526   1.15936   1.15750   1.09079
 1584  H   0.86747
 1585  H   0.86610
 1586  H   0.85368
 1587  C   1.05656   1.16161   1.09277   1.15426
 1588  H   0.84586
 1589  H   0.86903
 1590  H   0.84515
 1591  C   1.07459   0.75941   0.76300   0.73207
 1592  O   1.88873   1.43196   1.84377   1.57881
 1593  O   1.89199   1.52731   1.54865   1.77896

 **********************
 *                    *
 * JOB ENDED NORMALLY *
 *                    *
 **********************



 TOTAL JOB TIME:          2307.01 SECONDS

 == MOPAC DONE ==
