 *******************************************************************************
 **                                                                           **
 **                              MOPAC v23.2.2                                **
 **                                                                           **
 *******************************************************************************
 **          Digital Object Identifier (DOI): 10.5281/zenodo.6511958          **
 **    Visit the DOI location for information on how to cite this program.    **
 *******************************************************************************

                              PM7 CALCULATION RESULTS

 *******************************************************************************
 *  CALCULATION DONE: (MAX THREADS = 24)             Thu Jan 22 14:07:03 2026  *
 *  PM7        - The PM7 Hamiltonian to be used
 *
 *
 *
 *                 CHARGE ON SYSTEM = +2
 *
 *
 *
 *  EPS=1      - USE ANDREAS KLAMT'S COSMO IMPLICIT SOLVATION MODEL
 *  XYZ        - CARTESIAN COORDINATE SYSTEM TO BE USED
 *  1SCF       - DO 1 SCF AND THEN STOP 
 *  T=         - A TIME OF 172800.0 SECONDS REQUESTED
 *  DUMP=N     - RESTART FILE WRITTEN EVERY 7200.0 SECONDS REQUESTED
 *******************************************************************************
PM7 1SCF XYZ CHARGE=2 EPS=1


   ATOM   CHEMICAL          X               Y               Z
  NUMBER   SYMBOL      (ANGSTROMS)     (ANGSTROMS)     (ANGSTROMS)

     1       H         71.69100000  *  165.23700000  * -45.36000000  *
     2       C         70.72700000  *  165.64400000  * -45.02500000  *
     3       O         70.67100000  *  166.69300000  * -44.40000000  *
     4       N         69.64800000  *  164.94600000  * -45.35400000  *
     5       H         69.74300000  *  164.08600000  * -45.86500000  *
     6       C         68.31800000  *  165.37700000  * -44.95100000  *
     7       H         68.30400000  *  166.44500000  * -44.75000000  *
     8       C         67.27900000  *  165.08100000  * -46.05800000  *
     9       H         67.27200000  *  164.02200000  * -46.29800000  *
    10       C         65.89200000  *  165.46600000  * -45.59200000  *
    11       H         65.46400000  *  166.22900000  * -46.24500000  *
    12       H         65.23700000  *  164.60600000  * -45.62700000  *
    13       H         65.87600000  *  165.89500000  * -44.58400000  *
    14       C         67.63700000  *  165.85600000  * -47.31700000  *
    15       H         68.59400000  *  165.52900000  * -47.70800000  *
    16       H         66.87900000  *  165.66900000  * -48.07700000  *
    17       H         67.68800000  *  166.92100000  * -47.10100000  *
    18       C         67.91500000  *  164.66400000  * -43.65700000  *
    19       O         67.55300000  *  165.30600000  * -42.67600000  *
    20       N         67.98400000  *  163.33800000  * -43.65800000  *
    21       H         68.28400000  *  162.85200000  * -44.48600000  *
    22       C         67.62300000  *  162.54400000  * -42.48700000  *
    23       H         67.90600000  *  163.07600000  * -41.58100000  *
    24       C         66.12800000  *  162.23500000  * -42.45900000  *
    25       H         65.92600000  *  161.47400000  * -43.20900000  *
    26       H         65.88500000  *  161.80700000  * -41.48800000  *
    27       C         65.21300000  *  163.39800000  * -42.74000000  *
    28       H         65.33100000  *  164.15700000  * -41.96400000  *
    29       H         65.45900000  *  163.81400000  * -43.69700000  *
    30       C         63.76600000  *  162.97200000  * -42.82400000  *
    31       O         63.44700000  *  162.11400000  * -43.67900000  *
    32       O         62.94800000  *  163.49400000  * -42.03400000  *
    33       C         68.34700000  *  161.22200000  * -42.57700000  *
    34       O         68.73000000  *  160.78800000  * -43.66100000  *
    35       N         68.52400000  *  160.57500000  * -41.43500000  *
    36       H         68.03000000  *  160.89100000  * -40.60600000  *
    37       C         69.17300000  *  159.28200000  * -41.42100000  *
    38       H         69.95100000  *  159.22100000  * -42.17800000  *
    39       C         69.75600000  *  159.01000000  * -40.03200000  *
    40       H         70.21900000  *  159.94300000  * -39.71800000  *
    41       H         68.96300000  *  158.79100000  * -39.31600000  *
    42       C         70.79800000  *  157.89600000  * -39.98300000  *
    43       H         70.31100000  *  156.94100000  * -40.17400000  *
    44       H         71.53800000  *  158.07300000  * -40.76900000  *
    45       C         71.50100000  *  157.83200000  * -38.61800000  *
    46       H         70.74900000  *  157.59000000  * -37.86000000  *
    47       H         72.23100000  *  157.01800000  * -38.63800000  *
    48       C         72.18600000  *  159.16200000  * -38.26900000  *
    49       H         72.83200000  *  159.42500000  * -39.10900000  *
    50       H         71.41200000  *  159.93100000  * -38.15600000  *
    51       N         73.00000000  *  159.10500000  * -37.02500000  *
    52       H         73.70000000  *  158.37000000  * -37.07400000  *
    53       H         73.43800000  *  159.98800000  * -36.79300000  *
    54       H         72.39100000  *  158.85400000  * -36.25100000  *
    55       C         68.06200000  *  158.28700000  * -41.74800000  *
    56       O         67.16300000  *  158.08100000  * -40.94600000  *
    57       N         68.06600000  *  157.74600000  * -42.96600000  *
    58       H         68.87500000  *  157.92300000  * -43.54100000  *
    59       C         67.11200000  *  156.72200000  * -43.42100000  *
    60       H         66.11100000  *  157.15500000  * -43.43000000  *
    61       C         67.46200000  *  156.27000000  * -44.85600000  *
    62       H         68.54200000  *  156.31100000  * -44.98100000  *
    63       C         67.03000000  *  154.83500000  * -45.17200000  *
    64       H         65.96400000  *  154.70300000  * -44.99000000  *
    65       H         67.26900000  *  154.61900000  * -46.20600000  *
    66       H         67.58200000  *  154.12800000  * -44.55700000  *
    67       C         66.82900000  *  157.25500000  * -45.85100000  *
    68       H         65.74300000  *  157.16300000  * -45.82700000  *
    69       H         67.07900000  *  158.25400000  * -45.51100000  *
    70       C         67.31700000  *  157.09600000  * -47.29900000  *
    71       H         66.93400000  *  156.17800000  * -47.73800000  *
    72       H         66.96200000  *  157.93300000  * -47.89600000  *
    73       H         68.40300000  *  157.07600000  * -47.33100000  *
    74       C         67.06700000  *  155.55300000  * -42.43800000  *
    75       O         65.98700000  *  155.12100000  * -42.03200000  *
    76       N         68.24100000  *  155.04800000  * -42.05900000  *
    77       H         69.10000000  *  155.44400000  * -42.42600000  *
    78       C         68.33700000  *  153.88400000  * -41.19800000  *
    79       H         68.05400000  *  154.17000000  * -40.18400000  *
    80       H         67.63800000  *  153.12300000  * -41.54900000  *
    81       C         69.72700000  *  153.26900000  * -41.14800000  *
    82       O         70.73900000  *  153.86300000  * -41.53000000  *
    83       N         69.74800000  *  152.06900000  * -40.58900000  *
    84       H         68.85800000  *  151.63900000  * -40.37700000  *
    85       C         70.92300000  *  151.44200000  * -40.00600000  *
    86       H         71.79900000  *  152.08000000  * -40.13700000  *
    87       C         70.66600000  *  151.28400000  * -38.49800000  *
    88       H         69.83700000  *  150.59500000  * -38.33400000  *
    89       H         71.56600000  *  150.87300000  * -38.06100000  *
    90       C         70.35300000  *  152.62200000  * -37.80100000  *
    91       H         71.14300000  *  153.33900000  * -38.03600000  *
    92       H         69.41700000  *  153.03000000  * -38.19000000  *
    93       C         70.21600000  *  152.47100000  * -36.27900000  *
    94       O         69.26700000  *  151.79900000  * -35.81400000  *
    95       O         71.01600000  *  153.08600000  * -35.53700000  *
    96       C         71.17800000  *  150.11600000  * -40.73400000  *
    97       O         70.54600000  *  149.09500000  * -40.45000000  *
    98       N         72.01800000  *  150.16700000  * -41.77100000  *
    99       H         72.58000000  *  151.00100000  * -41.90400000  *
   100       C         72.12400000  *  149.11300000  * -42.78200000  *
   101       H         71.12700000  *  148.73400000  * -43.00800000  *
   102       H         72.52500000  *  149.55400000  * -43.69400000  *
   103       C         73.00800000  *  147.92500000  * -42.39300000  *
   104       O         73.54900000  *  147.83700000  * -41.29300000  *
   105       N         73.20900000  *  147.02300000  * -43.35500000  *
   106       H         72.72800000  *  147.14700000  * -44.23700000  *
   107       C         74.07300000  *  145.82700000  * -43.24800000  *
   108       H         73.79600000  *  145.26600000  * -42.35500000  *
   109       C         73.86100000  *  144.91500000  * -44.46900000  *
   110       H         74.62400000  *  144.13500000  * -44.48900000  *
   111       C         72.49000000  *  144.24900000  * -44.44100000  *
   112       H         71.69800000  *  144.99500000  * -44.50700000  *
   113       H         72.41200000  *  143.56100000  * -45.28300000  *
   114       H         72.38900000  *  143.67700000  * -43.51900000  *
   115       O         73.95200000  *  145.69000000  * -45.63900000  *
   116       H         73.39300000  *  145.28000000  * -46.33600000  *
   117       C         75.57000000  *  146.13600000  * -43.13800000  *
   118       O         76.30400000  *  145.30500000  * -42.60700000  *
   119       N         76.01300000  *  147.31600000  * -43.59600000  *
   120       H         75.33600000  *  147.88700000  * -44.07400000  *
   121       C         77.43000000  *  147.71200000  * -43.69100000  *
   122       H         78.03400000  *  147.06300000  * -43.05600000  *
   123       C         77.90500000  *  147.53800000  * -45.14400000  *
   124       H         77.31600000  *  148.19300000  * -45.78500000  *
   125       H         78.94600000  *  147.85000000  * -45.22100000  *
   126       C         77.83700000  *  146.12800000  * -45.67400000  *
   127       C         78.72500000  *  145.16200000  * -45.17000000  *
   128       H         79.45600000  *  145.43400000  * -44.41900000  *
   129       C         78.64900000  *  143.83900000  * -45.62900000  *
   130       H         79.32700000  *  143.10100000  * -45.22900000  *
   131       C         77.68400000  *  143.48300000  * -46.59500000  *
   132       O         77.57900000  *  142.19600000  * -47.00100000  *
   133       H         77.95700000  *  141.61300000  * -46.31600000  *
   134       C         76.80900000  *  144.45700000  * -47.11500000  *
   135       H         76.06000000  *  144.18200000  * -47.83900000  *
   136       C         76.89400000  *  145.78300000  * -46.65900000  *
   137       H         76.21000000  *  146.52700000  * -47.04400000  *
   138       C         77.74200000  *  149.15600000  * -43.25900000  *
   139       O         78.89400000  *  149.57100000  * -43.36500000  *
   140       N         76.76600000  *  149.94600000  * -42.80100000  *
   141       H         75.84200000  *  149.56900000  * -42.65100000  *
   142       C         76.97700000  *  151.36300000  * -42.48200000  *
   143       H         77.52200000  *  151.44700000  * -41.54400000  *
   144       H         77.59200000  *  151.80800000  * -43.25500000  *
   145       C         75.67800000  *  152.16000000  * -42.36000000  *
   146       O         74.60700000  *  151.57000000  * -42.18700000  *
   147       N         75.75500000  *  153.49500000  * -42.44900000  *
   148       H         76.58800000  *  153.89400000  * -42.85900000  *
   149       C         74.59200000  *  154.32600000  * -42.21200000  *
   150       H         73.82600000  *  153.78000000  * -41.65800000  *
   151       C         74.95900000  *  155.54800000  * -41.37000000  *
   152       H         75.70700000  *  156.13900000  * -41.89300000  *
   153       C         73.73100000  *  156.40900000  * -41.13300000  *
   154       H         72.94300000  *  155.80300000  * -40.68200000  *
   155       H         73.98600000  *  157.21200000  * -40.45000000  *
   156       H         73.36800000  *  156.84900000  * -42.06500000  *
   157       C         75.54500000  *  155.09600000  * -40.05300000  *
   158       H         76.46000000  *  154.52800000  * -40.19800000  *
   159       H         75.77700000  *  155.95300000  * -39.42300000  *
   160       H         74.80500000  *  154.48400000  * -39.53200000  *
   161       C         74.01900000  *  154.79200000  * -43.53700000  *
   162       O         74.76100000  *  155.18400000  * -44.43700000  *
   163       N         72.70000000  *  154.65600000  * -43.67600000  *
   164       H         72.15700000  *  154.33200000  * -42.88000000  *
   165       C         71.95400000  *  155.12600000  * -44.84300000  *
   166       H         72.64600000  *  155.22100000  * -45.67600000  *
   167       C         70.84300000  *  154.15100000  * -45.27300000  *
   168       H         69.98300000  *  154.25800000  * -44.61300000  *
   169       C         70.41700000  *  154.49000000  * -46.70800000  *
   170       H         71.26400000  *  154.39600000  * -47.38800000  *
   171       H         69.62900000  *  153.81700000  * -47.03800000  *
   172       H         70.04100000  *  155.51000000  * -46.76300000  *
   173       C         71.30300000  *  152.69100000  * -45.21400000  *
   174       H         72.28200000  *  152.60300000  * -45.67300000  *
   175       H         71.36200000  *  152.36900000  * -44.17300000  *
   176       H         70.59000000  *  152.04700000  * -45.72900000  *
   177       C         71.36800000  *  156.49300000  * -44.53000000  *
   178       O         70.64600000  *  156.63700000  * -43.54000000  *
   179       N         71.62500000  *  157.49000000  * -45.37400000  *
   180       H         72.23900000  *  157.32200000  * -46.16900000  *
   181       C         71.01800000  *  158.79600000  * -45.21900000  *
   182       H         70.37900000  *  158.84300000  * -44.33800000  *
   183       C         72.10000000  *  159.86100000  * -45.06900000  *
   184       H         72.79900000  *  159.78100000  * -45.90500000  *
   185       H         71.63400000  *  160.84400000  * -45.14300000  *
   186       C         72.87100000  *  159.84300000  * -43.76800000  *
   187       C         72.34700000  *  160.43100000  * -42.61900000  *
   188       H         71.37700000  *  160.90600000  * -42.66800000  *
   189       C         73.06400000  *  160.45200000  * -41.42500000  *
   190       H         72.63300000  *  160.94600000  * -40.56800000  *
   191       C         74.33000000  *  159.87400000  * -41.37100000  *
   192       O         75.04700000  *  159.90100000  * -40.18700000  *
   193       H         74.69700000  *  160.54100000  * -39.56800000  *
   194       C         74.87500000  *  159.27800000  * -42.50300000  *
   195       H         75.78500000  *  158.71900000  * -42.41900000  *
   196       C         74.14000000  *  159.26700000  * -43.69600000  *
   197       H         74.51800000  *  158.73300000  * -44.56500000  *
   198       C         70.16700000  *  159.17400000  * -46.42900000  *
   199       O         70.41800000  *  158.72400000  * -47.55600000  *
   200       N         69.02600000  *  159.82900000  * -46.21100000  *
   201       H         68.83800000  *  160.13300000  * -45.26300000  *
   202       C         68.29600000  *  160.51300000  * -47.27900000  *
   203       H         68.28200000  *  159.91100000  * -48.19000000  *
   204       C         66.85400000  *  160.85400000  * -46.84800000  *
   205       H         66.32600000  *  159.94000000  * -46.59300000  *
   206       H         66.87700000  *  161.49000000  * -45.96100000  *
   207       C         66.05200000  *  161.55300000  * -47.95800000  *
   208       H         66.53400000  *  162.49300000  * -48.22800000  *
   209       H         66.02400000  *  160.90700000  * -48.83700000  *
   210       C         64.61800000  *  161.84000000  * -47.48600000  *
   211       H         64.15500000  *  160.91200000  * -47.14600000  *
   212       H         64.65300000  *  162.53700000  * -46.64800000  *
   213       C         63.77900000  *  162.43700000  * -48.62400000  *
   214       H         64.30600000  *  163.30600000  * -49.02900000  *
   215       H         63.69700000  *  161.68900000  * -49.42100000  *
   216       N         62.42400000  *  162.84000000  * -48.16100000  *
   217       H         62.47400000  *  163.55300000  * -47.44800000  *
   218       H         61.87500000  *  163.22000000  * -48.92200000  *
   219       H         61.91300000  *  162.05700000  * -47.77700000  *
   220       C         69.11200000  *  161.76200000  * -47.50700000  *
   221       O         69.35400000  *  162.49100000  * -46.54800000  *
   222       N         69.55500000  *  162.00600000  * -48.72500000  *
   223       H         69.34400000  *  161.34200000  * -49.46700000  *
   224       C         70.34900000  *  163.18200000  * -49.01700000  *
   225       H         70.22500000  *  163.93500000  * -48.24000000  *
   226       C         71.81400000  *  162.79200000  * -49.07000000  *
   227       H         71.97800000  *  162.06700000  * -49.86400000  *
   228       H         72.42900000  *  163.67700000  * -49.23900000  *
   229       H         72.10500000  *  162.33200000  * -48.12600000  *
   230       C         69.94400000  *  163.83800000  * -50.32200000  *
   231       O         69.22100000  *  163.25100000  * -51.12800000  *
   232       N         70.40700000  *  165.06400000  * -50.52400000  *
   233       H         70.93200000  *  165.53000000  * -49.79600000  *
   234       C         70.10800000  *  165.77900000  * -51.74600000  *
   235       H         69.54100000  *  165.15900000  * -52.44400000  *
   236       H         69.52200000  *  166.69100000  * -51.53000000  *
   237       H         71.05900000  *  166.04700000  * -52.23900000  *
   238       H         68.08600000  *  164.80700000  * -56.55000000  *
   239       C         68.21200000  *  164.39600000  * -55.53600000  *
   240       O         69.28600000  *  164.50800000  * -54.94200000  *
   241       N         67.13500000  *  163.82300000  * -55.01100000  *
   242       H         66.34000000  *  163.66800000  * -55.61500000  *
   243       C         67.13600000  *  163.21200000  * -53.68800000  *
   244       H         67.86300000  *  163.70700000  * -53.05000000  *
   245       C         65.75500000  *  163.32300000  * -53.02900000  *
   246       H         64.97700000  *  163.06900000  * -53.75000000  *
   247       C         65.64800000  *  162.36600000  * -51.85200000  *
   248       H         66.47200000  *  162.51800000  * -51.15200000  *
   249       H         64.69700000  *  162.53800000  * -51.34700000  *
   250       H         65.65200000  *  161.33900000  * -52.20000000  *
   251       C         65.54000000  *  164.75000000  * -52.56600000  *
   252       H         65.62600000  *  165.42400000  * -53.41600000  *
   253       H         64.53500000  *  164.85100000  * -52.15900000  *
   254       H         66.28400000  *  165.00300000  * -51.81000000  *
   255       C         67.52600000  *  161.76000000  * -53.84700000  *
   256       O         66.97900000  *  161.02800000  * -54.68200000  *
   257       N         68.49600000  *  161.34900000  * -53.04800000  *
   258       H         68.91100000  *  161.99700000  * -52.39100000  *
   259       C         69.01100000  *  159.99200000  * -53.10200000  *
   260       H         68.34600000  *  159.34100000  * -53.67900000  *
   261       C         70.37400000  *  159.97400000  * -53.81600000  *
   262       H         70.77500000  *  158.96500000  * -53.87500000  *
   263       C         70.21400000  *  160.50700000  * -55.21300000  *
   264       H         69.95700000  *  161.56600000  * -55.19000000  *
   265       H         71.15100000  *  160.39100000  * -55.75600000  *
   266       H         69.44200000  *  159.95000000  * -55.73600000  *
   267       C         71.37900000  *  160.85000000  * -53.05700000  *
   268       H         71.56500000  *  160.44500000  * -52.06400000  *
   269       H         72.31500000  *  160.84900000  * -53.61300000  *
   270       H         71.03600000  *  161.88400000  * -52.98400000  *
   271       C         69.19200000  *  159.37200000  * -51.72900000  *
   272       O         69.02000000  *  160.03600000  * -50.68600000  *
   273       N         69.38800000  *  158.06000000  * -51.70800000  *
   274       H         69.46500000  *  157.56800000  * -52.59400000  *
   275       C         69.76100000  *  157.32100000  * -50.51800000  *
   276       H         69.47900000  *  157.88000000  * -49.62700000  *
   277       C         69.00000000  *  156.00400000  * -50.49400000  *
   278       H         69.21800000  *  155.44100000  * -51.40000000  *
   279       H         69.29400000  *  155.42000000  * -49.62100000  *
   280       H         67.93200000  *  156.21300000  * -50.44300000  *
   281       C         71.27900000  *  157.13900000  * -50.53900000  *
   282       O         71.81500000  *  156.45700000  * -51.41800000  *
   283       N         71.97000000  *  157.79100000  * -49.60300000  *
   284       H         71.44500000  *  158.28300000  * -48.88900000  *
   285       C         73.41300000  *  157.73400000  * -49.53500000  *
   286       H         73.80300000  *  157.43200000  * -50.50200000  *
   287       C         73.96100000  *  159.11400000  * -49.18200000  *
   288       H         73.49200000  *  159.84000000  * -49.85100000  *
   289       H         73.62800000  *  159.35800000  * -48.16900000  *
   290       C         75.47300000  *  159.31600000  * -49.26600000  *
   291       H         75.96900000  *  158.63700000  * -48.57100000  *
   292       C         75.94900000  *  159.02000000  * -50.68400000  *
   293       H         75.44100000  *  159.71800000  * -51.34800000  *
   294       H         77.02400000  *  159.18800000  * -50.76300000  *
   295       H         75.74700000  *  157.98700000  * -50.96800000  *
   296       C         75.80400000  *  160.74000000  * -48.87900000  *
   297       H         75.43700000  *  160.94600000  * -47.87600000  *
   298       H         76.88200000  *  160.87900000  * -48.92200000  *
   299       H         75.32000000  *  161.42900000  * -49.57600000  *
   300       C         73.82100000  *  156.71600000  * -48.48500000  *
   301       O         73.39600000  *  156.78100000  * -47.33400000  *
   302       N         74.63700000  *  155.74500000  * -48.88800000  *
   303       H         74.87300000  *  155.72400000  * -49.87800000  *
   304       C         75.13400000  *  154.63100000  * -48.06600000  *
   305       H         74.61200000  *  154.60000000  * -47.10800000  *
   306       C         74.87400000  *  153.32200000  * -48.85100000  *
   307       H         74.44800000  *  153.57000000  * -49.82400000  *
   308       H         75.81200000  *  152.80000000  * -49.04200000  *
   309       C         73.89900000  *  152.33600000  * -48.20500000  *
   310       H         73.03800000  *  152.87600000  * -47.81300000  *
   311       H         73.54500000  *  151.68000000  * -49.00000000  *
   312       C         74.56000000  *  151.48900000  * -47.10400000  *
   313       H         75.53000000  *  151.12500000  * -47.44900000  *
   314       H         74.73600000  *  152.12000000  * -46.22900000  *
   315       C         73.69500000  *  150.28300000  * -46.69600000  *
   316       H         74.17000000  *  149.80300000  * -45.83400000  *
   317       H         72.71200000  *  150.64300000  * -46.37200000  *
   318       N         73.54000000  *  149.29800000  * -47.80600000  *
   319       H         74.43500000  *  148.95400000  * -48.13300000  *
   320       H         72.99100000  *  148.47600000  * -47.52100000  *
   321       H         73.04800000  *  149.70400000  * -48.59200000  *
   322       C         76.62400000  *  154.85000000  * -47.79900000  *
   323       O         77.41700000  *  154.68900000  * -48.71700000  *
   324       N         77.01700000  *  155.22600000  * -46.58100000  *
   325       H         76.29800000  *  155.26800000  * -45.86500000  *
   326       C         78.42200000  *  155.28900000  * -46.15900000  *
   327       H         79.06600000  *  155.59300000  * -46.98900000  *
   328       C         78.56700000  *  156.26000000  * -44.97900000  *
   329       H         78.02700000  *  155.87500000  * -44.10900000  *
   330       H         79.62500000  *  156.33900000  * -44.73000000  *
   331       C         78.01500000  *  157.64300000  * -45.34000000  *
   332       H         78.45100000  *  157.95800000  * -46.27300000  *
   333       H         76.93600000  *  157.57500000  * -45.50000000  *
   334       C         78.25100000  *  158.72500000  * -44.27900000  *
   335       H         77.97800000  *  159.68000000  * -44.73200000  *
   336       H         77.56000000  *  158.53300000  * -43.46900000  *
   337       C         79.67700000  *  158.85000000  * -43.70900000  *
   338       H         80.38400000  *  158.36300000  * -44.39700000  *
   339       H         79.95000000  *  159.91100000  * -43.68600000  *
   340       N         79.78800000  *  158.26900000  * -42.33500000  *
   341       H         79.63700000  *  157.26100000  * -42.37000000  *
   342       H         80.69600000  *  158.42600000  * -41.93200000  *
   343       H         79.10400000  *  158.64600000  * -41.70100000  *
   344       C         78.82300000  *  153.89100000  * -45.72900000  *
   345       O         78.09100000  *  153.31500000  * -44.93700000  *
   346       N         79.90700000  *  153.32000000  * -46.24700000  *
   347       H         80.40500000  *  153.76400000  * -47.01000000  *
   348       C         80.34300000  *  152.02200000  * -45.76800000  *
   349       H         79.49500000  *  151.49800000  * -45.35900000  *
   350       C         80.94400000  *  151.18600000  * -46.89500000  *
   351       H         81.78600000  *  151.78200000  * -47.16900000  *
   352       C         81.42400000  *  149.85200000  * -46.34500000  *
   353       H         80.65600000  *  149.35200000  * -45.75200000  *
   354       H         81.67900000  *  149.19900000  * -47.17900000  *
   355       H         82.34500000  *  149.95700000  * -45.76100000  *
   356       C         79.89700000  *  150.97600000  * -47.99700000  *
   357       H         79.60200000  *  151.87000000  * -48.50000000  *
   358       H         80.28300000  *  150.30500000  * -48.75000000  *
   359       C         78.59100000  *  150.36100000  * -47.52600000  *
   360       H         78.17700000  *  150.90100000  * -46.69000000  *
   361       H         77.89400000  *  150.33700000  * -48.36300000  *
   362       H         78.77100000  *  149.33300000  * -47.20900000  *
   363       C         81.33300000  *  152.07100000  * -44.61400000  *
   364       O         82.16700000  *  152.98000000  * -44.51900000  *
   365       N         81.21100000  *  151.07100000  * -43.74300000  *
   366       H         80.50300000  *  150.36100000  * -43.92800000  *
   367       C         82.04400000  *  150.90200000  * -42.55200000  *
   368       H         81.47500000  *  151.18100000  * -41.66300000  *
   369       H         82.35800000  *  149.86100000  * -42.45900000  *
   370       H         82.94700000  *  151.51400000  * -42.62000000  *
   371       H         81.25700000  *  144.04600000  * -57.89900000  *
   372       C         80.50000000  *  144.84100000  * -57.88800000  *
   373       O         79.71500000  *  144.99000000  * -58.82400000  *
   374       N         80.49900000  *  145.60300000  * -56.79700000  *
   375       H         81.28000000  *  145.52500000  * -56.16600000  *
   376       C         79.57000000  *  146.70600000  * -56.61200000  *
   377       H         78.57500000  *  146.34400000  * -56.42300000  *
   378       C         80.00500000  *  147.61000000  * -55.44200000  *
   379       H         80.89800000  *  148.18000000  * -55.68500000  *
   380       C         78.90600000  *  148.60800000  * -55.12500000  *
   381       H         77.92000000  *  148.14100000  * -55.17600000  *
   382       H         79.04500000  *  148.98700000  * -54.11600000  *
   383       H         78.93800000  *  149.43600000  * -55.83300000  *
   384       C         80.32100000  *  146.76200000  * -54.20900000  *
   385       H         81.19200000  *  146.13400000  * -54.40600000  *
   386       H         80.59400000  *  147.42200000  * -53.38900000  *
   387       C         79.18400000  *  145.87900000  * -53.76500000  *
   388       H         78.77800000  *  145.31100000  * -54.59400000  *
   389       H         79.50900000  *  145.12200000  * -53.06500000  *
   390       H         78.38800000  *  146.48300000  * -53.33500000  *
   391       C         79.54300000  *  147.54500000  * -57.87900000  *
   392       O         78.48200000  *  147.77900000  * -58.45100000  *
   393       N         80.72300000  *  147.98900000  * -58.30900000  *
   394       H         81.55800000  *  147.70100000  * -57.81200000  *
   395       C         80.85900000  *  148.80400000  * -59.51100000  *
   396       H         80.33900000  *  149.74600000  * -59.38600000  *
   397       H         81.92800000  *  148.98500000  * -59.72900000  *
   398       H         80.37800000  *  148.32200000  * -60.38100000  *
   399       H         78.96400000  *  146.08700000  * -61.65600000  *
   400       C         77.87300000  *  146.08700000  * -61.51600000  *
   401       O         77.11500000  *  145.89500000  * -62.46400000  *
   402       N         77.44600000  *  146.31800000  * -60.28000000  *
   403       H         78.13400000  *  146.42500000  * -59.54900000  *
   404       C         76.02800000  *  146.35200000  * -59.94500000  *
   405       H         75.53300000  *  145.47600000  * -60.35900000  *
   406       C         75.84100000  *  146.37400000  * -58.43100000  *
   407       H         76.20500000  *  147.30400000  * -58.01800000  *
   408       H         74.76300000  *  146.35700000  * -58.24200000  *
   409       C         76.47200000  *  145.22200000  * -57.65900000  *
   410       H         77.55000000  *  145.23900000  * -57.74900000  *
   411       C         76.08000000  *  145.34100000  * -56.19200000  *
   412       H         74.99900000  *  145.23000000  * -56.07700000  *
   413       H         76.57300000  *  144.55300000  * -55.62900000  *
   414       H         76.38500000  *  146.30900000  * -55.80100000  *
   415       C         75.99600000  *  143.89000000  * -58.23600000  *
   416       H         76.41500000  *  143.73000000  * -59.22900000  *
   417       H         76.32800000  *  143.07800000  * -57.59100000  *
   418       H         74.90500000  *  143.87400000  * -58.30500000  *
   419       C         75.32200000  *  147.55900000  * -60.54800000  *
   420       O         74.09500000  *  147.56800000  * -60.66200000  *
   421       N         76.08400000  *  148.63100000  * -60.82900000  *
   422       H         77.08200000  *  148.53500000  * -60.67700000  *
   423       C         75.60100000  *  149.83300000  * -61.53400000  *
   424       H         74.83700000  *  150.33500000  * -60.94100000  *
   425       H         76.43800000  *  150.53300000  * -61.75900000  *
   426       H         75.13800000  *  149.54900000  * -62.49200000  *
   427       H         62.79000000  *  145.77200000  * -59.27600000  *
   428       C         63.71000000  *  145.72000000  * -58.67500000  *
   429       O         63.77900000  *  145.02200000  * -57.66400000  *
   430       N         64.72400000  *  146.45200000  * -59.11400000  *
   431       H         64.63800000  *  147.05100000  * -59.92700000  *
   432       C         65.97100000  *  146.53500000  * -58.38100000  *
   433       H         65.88400000  *  146.09200000  * -57.38600000  *
   434       C         67.11600000  *  145.87700000  * -59.11400000  *
   435       H         67.33600000  *  146.42600000  * -60.03000000  *
   436       C         68.35100000  *  145.87800000  * -58.21400000  *
   437       H         68.14700000  *  145.31400000  * -57.31800000  *
   438       H         69.21000000  *  145.44500000  * -58.72400000  *
   439       H         68.64100000  *  146.89000000  * -57.94500000  *
   440       C         66.72800000  *  144.44400000  * -59.47800000  *
   441       H         66.54900000  *  143.87300000  * -58.56400000  *
   442       H         65.81500000  *  144.42400000  * -60.06800000  *
   443       C         67.77400000  *  143.72700000  * -60.29600000  *
   444       H         68.68300000  *  143.57700000  * -59.72200000  *
   445       H         67.37700000  *  142.75300000  * -60.59800000  *
   446       H         68.02300000  *  144.31300000  * -61.18000000  *
   447       C         66.29500000  *  148.01000000  * -58.22000000  *
   448       O         66.21200000  *  148.78000000  * -59.18400000  *
   449       N         66.55800000  *  148.43600000  * -56.98200000  *
   450       H         66.62700000  *  147.75200000  * -56.23400000  *
   451       C         66.89700000  *  149.83100000  * -56.67500000  *
   452       H         66.07900000  *  150.47400000  * -56.99600000  *
   453       C         67.09800000  *  150.02400000  * -55.16400000  *
   454       H         67.88300000  *  149.35300000  * -54.81400000  *
   455       C         67.48000000  *  151.46100000  * -54.79200000  *
   456       H         66.65400000  *  152.13700000  * -55.00700000  *
   457       H         67.70800000  *  151.50900000  * -53.72800000  *
   458       H         68.35700000  *  151.78400000  * -55.34800000  *
   459       C         65.80200000  *  149.70600000  * -54.41600000  *
   460       H         65.53000000  *  148.66100000  * -54.53300000  *
   461       H         65.95500000  *  149.89900000  * -53.36200000  *
   462       H         64.99300000  *  150.33000000  * -54.78900000  *
   463       C         68.15500000  *  150.21800000  * -57.44800000  *
   464       O         69.18700000  *  149.55200000  * -57.32300000  *
   465       N         68.08000000  *  151.28300000  * -58.25100000  *
   466       H         67.22500000  *  151.80400000  * -58.24500000  *
   467       C         69.18900000  *  151.69800000  * -59.08000000  *
   468       H         69.52500000  *  150.81900000  * -59.63900000  *
   469       C         68.73700000  *  152.76800000  * -60.08300000  *
   470       H         67.83400000  *  152.41100000  * -60.57900000  *
   471       H         68.47700000  *  153.68100000  * -59.53700000  *
   472       C         69.79100000  *  153.06900000  * -61.13100000  *
   473       H         70.72100000  *  153.35000000  * -60.64200000  *
   474       H         69.97400000  *  152.16800000  * -61.71600000  *
   475       C         69.35100000  *  154.17900000  * -62.08100000  *
   476       H         68.50200000  *  153.81400000  * -62.66100000  *
   477       H         69.02300000  *  155.05600000  * -61.52200000  *
   478       C         70.49800000  *  154.55900000  * -63.02400000  *
   479       H         71.33900000  *  154.89000000  * -62.40800000  *
   480       H         70.81900000  *  153.66100000  * -63.56600000  *
   481       N         70.11800000  *  155.62600000  * -63.99700000  *
   482       H         69.74700000  *  156.41600000  * -63.48300000  *
   483       H         70.92600000  *  155.93300000  * -64.52500000  *
   484       H         69.41500000  *  155.27800000  * -64.63600000  *
   485       C         70.36000000  *  152.21400000  * -58.25300000  *
   486       O         70.19400000  *  153.07400000  * -57.38700000  *
   487       N         71.53700000  *  151.64500000  * -58.50700000  *
   488       H         71.59600000  *  150.90400000  * -59.18600000  *
   489       C         72.75000000  *  152.07400000  * -57.83600000  *
   490       H         72.53800000  *  152.52600000  * -56.87100000  *
   491       C         73.72700000  *  150.91100000  * -57.67000000  *
   492       H         73.31500000  *  150.22100000  * -56.93700000  *
   493       H         73.77900000  *  150.36900000  * -58.62000000  *
   494       C         75.16700000  *  151.27300000  * -57.28800000  *
   495       H         75.65500000  *  151.80300000  * -58.10000000  *
   496       C         75.18300000  *  152.16500000  * -56.05900000  *
   497       H         74.60800000  *  151.72100000  * -55.25200000  *
   498       H         76.21000000  *  152.29600000  * -55.73500000  *
   499       H         74.78900000  *  153.14000000  * -56.31200000  *
   500       C         75.93300000  *  149.99400000  * -57.01300000  *
   501       H         75.98300000  *  149.42100000  * -57.93300000  *
   502       H         76.94600000  *  150.24200000  * -56.71200000  *
   503       H         75.43500000  *  149.41000000  * -56.23200000  *
   504       C         73.31900000  *  153.11300000  * -58.79500000  *
   505       O         73.76900000  *  152.77900000  * -59.89700000  *
   506       N         73.26700000  *  154.36900000  * -58.37800000  *
   507       H         72.92600000  *  154.57000000  * -57.44900000  *
   508       C         73.73400000  *  155.46600000  * -59.19700000  *
   509       H         73.47500000  *  155.26500000  * -60.23600000  *
   510       C         73.02500000  *  156.74200000  * -58.76000000  *
   511       H         73.45000000  *  157.06300000  * -57.80900000  *
   512       H         73.23600000  *  157.53300000  * -59.48700000  *
   513       C         71.51300000  *  156.60300000  * -58.58700000  *
   514       H         71.27400000  *  155.80900000  * -57.88500000  *
   515       C         70.97400000  *  157.88000000  * -58.01900000  *
   516       H         71.37000000  *  158.74600000  * -58.56000000  *
   517       H         69.88800000  *  157.89100000  * -58.09300000  *
   518       H         71.22100000  *  157.96000000  * -56.96600000  *
   519       C         70.85100000  *  156.29000000  * -59.92300000  *
   520       H         71.28300000  *  155.39700000  * -60.34200000  *
   521       H         69.78900000  *  156.14400000  * -59.75100000  *
   522       H         71.00300000  *  157.12700000  * -60.60700000  *
   523       C         75.24500000  *  155.67800000  * -59.15800000  *
   524       O         75.83900000  *  156.04700000  * -60.17600000  *
   525       N         75.86200000  *  155.44600000  * -57.99600000  *
   526       H         75.29500000  *  155.17900000  * -57.20400000  *
   527       C         77.30800000  *  155.64700000  * -57.82900000  *
   528       H         77.80800000  *  155.40400000  * -58.76600000  *
   529       C         77.60000000  *  157.11700000  * -57.51900000  *
   530       H         76.91700000  *  157.54400000  * -56.80300000  *
   531       H         78.58200000  *  157.17000000  * -57.04800000  *
   532       C         77.65600000  *  157.97500000  * -58.75600000  *
   533       O         78.67800000  *  157.91700000  * -59.48300000  *
   534       O         76.67400000  *  158.70400000  * -59.00000000  *
   535       C         77.97900000  *  154.81700000  * -56.73400000  *
   536       O         77.37100000  *  154.52100000  * -55.70400000  *
   537       N         79.24700000  *  154.47700000  * -56.96600000  *
   538       H         79.69800000  *  154.82400000  * -57.79800000  *
   539       C         80.06100000  *  153.73800000  * -56.00300000  *
   540       H         79.55400000  *  153.69900000  * -55.05200000  *
   541       C         80.36600000  *  152.29800000  * -56.50400000  *
   542       H         79.42700000  *  151.75200000  * -56.56200000  *
   543       C         80.98100000  *  152.34300000  * -57.88400000  *
   544       H         82.06600000  *  152.43300000  * -57.82100000  *
   545       H         80.74600000  *  151.41400000  * -58.37900000  *
   546       H         80.59600000  *  153.14500000  * -58.51000000  *
   547       C         81.29900000  *  151.58800000  * -55.53900000  *
   548       H         80.81100000  *  151.54900000  * -54.57200000  *
   549       H         81.47300000  *  150.57200000  * -55.87800000  *
   550       H         82.25900000  *  152.09200000  * -55.44900000  *
   551       C         81.36500000  *  154.53600000  * -55.81000000  *
   552       O         82.27000000  *  154.48900000  * -56.64700000  *
   553       N         81.45200000  *  155.28200000  * -54.71000000  *
   554       H         80.67600000  *  155.30400000  * -54.06400000  *
   555       C         82.62100000  *  156.11100000  * -54.44300000  *
   556       H         83.20500000  *  156.21800000  * -55.35800000  *
   557       H         82.32200000  *  157.12800000  * -54.14500000  *
   558       H         83.29700000  *  155.73900000  * -53.65600000  *
   559       H         84.58000000  *  155.17100000  * -47.07300000  *
   560       C         84.22500000  *  154.98400000  * -48.09100000  *
   561       O         84.63900000  *  155.65900000  * -49.04200000  *
   562       N         83.35800000  *  153.99100000  * -48.22200000  *
   563       H         83.13600000  *  153.42800000  * -47.41700000  *
   564       C         82.77600000  *  153.65100000  * -49.50600000  *
   565       H         83.37000000  *  154.04700000  * -50.31700000  *
   566       C         82.71900000  *  152.14000000  * -49.66000000  *
   567       H         83.74000000  *  151.87500000  * -49.95700000  *
   568       H         82.64400000  *  151.54600000  * -48.78400000  *
   569       C         81.82600000  *  151.61900000  * -50.77900000  *
   570       H         80.79100000  *  151.88400000  * -50.58700000  *
   571       C         82.25800000  *  152.23100000  * -52.09200000  *
   572       H         83.31100000  *  152.49100000  * -52.08900000  *
   573       H         82.09300000  *  151.51300000  * -52.88400000  *
   574       H         81.65400000  *  153.10900000  * -52.31200000  *
   575       C         81.89900000  *  150.09400000  * -50.82200000  *
   576       H         81.91300000  *  149.66400000  * -49.82700000  *
   577       H         81.05200000  *  149.70600000  * -51.39100000  *
   578       H         82.82500000  *  149.80300000  * -51.32100000  *
   579       C         81.36700000  *  154.23200000  * -49.54800000  *
   580       O         80.51800000  *  153.85700000  * -48.74500000  *
   581       N         81.13100000  *  155.16100000  * -50.46700000  *
   582       H         81.84500000  *  155.34800000  * -51.16200000  *
   583       C         79.82200000  *  155.78100000  * -50.60800000  *
   584       H         79.27400000  *  155.67000000  * -49.68700000  *
   585       C         79.96700000  *  157.27800000  * -50.86800000  *
   586       H         80.42300000  *  157.50400000  * -51.79700000  *
   587       H         78.95400000  *  157.66400000  * -50.98900000  *
   588       C         80.57600000  *  158.04300000  * -49.72300000  *
   589       C         79.79300000  *  158.48000000  * -48.65600000  *
   590       H         78.73500000  *  158.25400000  * -48.66900000  *
   591       C         80.35600000  *  159.18600000  * -47.59400000  *
   592       H         79.75300000  *  159.56200000  * -46.79700000  *
   593       C         81.71600000  *  159.45200000  * -47.58700000  *
   594       O         82.27600000  *  160.12500000  * -46.52100000  *
   595       H         83.20600000  *  160.30800000  * -46.74500000  *
   596       C         82.51400000  *  159.02600000  * -48.63700000  *
   597       H         83.58200000  *  159.23300000  * -48.65000000  *
   598       C         81.94100000  *  158.32800000  * -49.69800000  *
   599       H         82.57400000  *  157.98100000  * -50.50200000  *
   600       C         79.04800000  *  155.15800000  * -51.76500000  *
   601       O         79.54400000  *  155.08000000  * -52.88800000  *
   602       N         77.86300000  *  154.62300000  * -51.49500000  *
   603       H         77.53600000  *  154.64600000  * -50.53500000  *
   604       C         76.98200000  *  154.05300000  * -52.51300000  *
   605       H         77.50700000  *  154.00100000  * -53.46000000  *
   606       C         76.55100000  *  152.62000000  * -52.15300000  *
   607       H         75.86700000  *  152.66300000  * -51.31500000  *
   608       H         76.00300000  *  152.21500000  * -53.00500000  *
   609       C         77.68900000  *  151.65100000  * -51.79200000  *
   610       H         78.20400000  *  152.00000000  * -50.89700000  *
   611       C         77.12000000  *  150.26100000  * -51.51000000  *
   612       H         76.62200000  *  149.86900000  * -52.39800000  *
   613       H         77.92600000  *  149.58400000  * -51.22500000  *
   614       H         76.40600000  *  150.31500000  * -50.68900000  *
   615       C         78.69300000  *  151.52700000  * -52.93100000  *
   616       H         79.21100000  *  152.47300000  * -53.06500000  *
   617       H         79.43100000  *  150.76700000  * -52.68300000  *
   618       H         78.18000000  *  151.25800000  * -53.85500000  *
   619       C         75.78800000  *  154.98600000  * -52.67200000  *
   620       O         75.10700000  *  155.26700000  * -51.68200000  *
   621       N         75.54700000  *  155.50800000  * -53.87800000  *
   622       H         76.14500000  *  155.25500000  * -54.66000000  *
   623       C         74.40900000  *  156.37500000  * -54.09400000  *
   624       H         73.97600000  *  156.70200000  * -53.15000000  *
   625       C         74.83400000  *  157.63700000  * -54.81800000  *
   626       H         75.25500000  *  157.34500000  * -55.76600000  *
   627       C         73.61400000  *  158.52200000  * -55.10900000  *
   628       H         73.11700000  *  158.76900000  * -54.17500000  *
   629       H         73.94100000  *  159.43100000  * -55.61500000  *
   630       H         72.91600000  *  158.00900000  * -55.76200000  *
   631       C         75.84000000  *  158.38200000  * -53.94900000  *
   632       H         75.28100000  *  158.78400000  * -53.13000000  *
   633       H         76.65600000  *  157.75800000  * -53.60500000  *
   634       H         76.26100000  *  159.20400000  * -54.52500000  *
   635       C         73.31400000  *  155.64400000  * -54.85300000  *
   636       O         73.49500000  *  155.22100000  * -55.99400000  *
   637       N         72.21200000  *  155.38100000  * -54.15700000  *
   638       H         72.14500000  *  155.73500000  * -53.20700000  *
   639       C         71.03500000  *  154.70500000  * -54.69100000  *
   640       H         71.28300000  *  154.23800000  * -55.64000000  *
   641       C         70.58100000  *  153.61400000  * -53.71600000  *
   642       H         70.45100000  *  154.05600000  * -52.72800000  *
   643       H         69.60400000  *  153.25500000  * -54.03400000  *
   644       C         71.51000000  *  152.42100000  * -53.60000000  *
   645       C         71.36900000  *  151.33100000  * -54.48100000  *
   646       H         70.62800000  *  151.35800000  * -55.26600000  *
   647       C         72.18300000  *  150.19400000  * -54.33800000  *
   648       H         72.06400000  *  149.35400000  * -55.01000000  *
   649       C         73.14900000  *  150.14500000  * -53.31800000  *
   650       H         73.77600000  *  149.27000000  * -53.20800000  *
   651       C         73.29800000  *  151.23500000  * -52.44300000  *
   652       H         74.03400000  *  151.19100000  * -51.65400000  *
   653       C         72.48500000  *  152.37400000  * -52.58500000  *
   654       H         72.59900000  *  153.20800000  * -51.90500000  *
   655       C         69.90200000  *  155.70800000  * -54.93000000  *
   656       O         69.78900000  *  156.70800000  * -54.22000000  *
   657       N         69.03600000  *  155.44400000  * -55.91100000  *
   658       H         69.17800000  *  154.60700000  * -56.46700000  *
   659       C         67.75100000  *  156.15300000  * -56.00400000  *
   660       H         67.96800000  *  157.20400000  * -56.20200000  *
   661       C         66.91100000  *  155.63000000  * -57.18400000  *
   662       H         66.03900000  *  156.27600000  * -57.28200000  *
   663       H         67.49600000  *  155.70100000  * -58.10300000  *
   664       C         66.44500000  *  154.18000000  * -56.99600000  *
   665       H         67.32500000  *  153.53600000  * -56.96800000  *
   666       H         65.93400000  *  154.09300000  * -56.04200000  *
   667       C         65.47100000  *  153.68200000  * -58.06900000  *
   668       O         64.64000000  *  154.45800000  * -58.59300000  *
   669       O         65.49000000  *  152.46400000  * -58.35200000  *
   670       C         66.97700000  *  156.08100000  * -54.66700000  *
   671       O         67.01400000  *  155.06700000  * -53.96300000  *
   672       N         66.28100000  *  157.15700000  * -54.29900000  *
   673       H         66.25500000  *  157.96100000  * -54.91000000  *
   674       C         65.41200000  *  157.17300000  * -53.12100000  *
   675       H         65.86400000  *  156.56600000  * -52.33300000  *
   676       C         65.31100000  *  158.61000000  * -52.59700000  *
   677       H         66.31300000  *  158.95900000  * -52.34600000  *
   678       H         64.92600000  *  159.25100000  * -53.39200000  *
   679       C         64.43400000  *  158.76500000  * -51.37100000  *
   680       C         63.11400000  *  159.23900000  * -51.49300000  *
   681       H         62.71900000  *  159.50300000  * -52.46500000  *
   682       C         62.30200000  *  159.36500000  * -50.35300000  *
   683       H         61.28800000  *  159.72600000  * -50.45100000  *
   684       C         62.80500000  *  159.01600000  * -49.08700000  *
   685       H         62.17600000  *  159.10300000  * -48.21100000  *
   686       C         64.12700000  *  158.55700000  * -48.96200000  *
   687       H         64.51500000  *  158.29300000  * -47.98900000  *
   688       C         64.93900000  *  158.42600000  * -50.10300000  *
   689       H         65.95000000  *  158.05600000  * -50.00700000  *
   690       C         64.02600000  *  156.58700000  * -53.44000000  *
   691       O         63.41800000  *  156.94000000  * -54.45400000  *
   692       N         63.50400000  *  155.73900000  * -52.55000000  *
   693       H         64.07900000  *  155.47300000  * -51.75600000  *
   694       C         62.11400000  *  155.26100000  * -52.55700000  *
   695       H         61.54600000  *  155.77600000  * -53.33300000  *
   696       C         62.05300000  *  153.74900000  * -52.82100000  *
   697       H         62.76600000  *  153.24800000  * -52.16800000  *
   698       H         61.05400000  *  153.41000000  * -52.54300000  *
   699       C         62.30900000  *  153.36400000  * -54.28900000  *
   700       H         62.04200000  *  154.19500000  * -54.94200000  *
   701       C         63.77400000  *  152.99300000  * -54.51200000  *
   702       H         64.05100000  *  152.17200000  * -53.85500000  *
   703       H         63.93000000  *  152.70700000  * -55.55100000  *
   704       H         64.40900000  *  153.84800000  * -54.28700000  *
   705       C         61.45400000  *  152.15900000  * -54.68700000  *
   706       H         60.40000000  *  152.37700000  * -54.51100000  *
   707       H         61.58500000  *  151.95100000  * -55.74600000  *
   708       H         61.73900000  *  151.28300000  * -54.10600000  *
   709       C         61.45400000  *  155.58600000  * -51.21600000  *
   710       O         62.07900000  *  155.47100000  * -50.16800000  *
   711       N         60.20200000  *  156.02700000  * -51.23300000  *
   712       H         59.74000000  *  156.12500000  * -52.12800000  *
   713       C         59.59800000  *  156.72500000  * -50.09500000  *
   714       H         60.31700000  *  157.46900000  * -49.74700000  *
   715       C         58.36700000  *  157.49200000  * -50.58800000  *
   716       H         57.58700000  *  156.77800000  * -50.85300000  *
   717       H         58.01200000  *  158.11300000  * -49.76800000  *
   718       C         58.62300000  *  158.38500000  * -51.78200000  *
   719       N         58.76800000  *  157.95400000  * -53.10500000  *
   720       C         59.00400000  *  159.06200000  * -53.83000000  *
   721       H         59.16300000  *  159.08200000  * -54.90300000  *
   722       N         59.01300000  *  160.14600000  * -53.03700000  *
   723       H         59.16400000  *  161.10000000  * -53.35300000  *
   724       C         58.77600000  *  159.74000000  * -51.74200000  *
   725       H         58.72300000  *  160.36700000  * -50.86100000  *
   726       C         59.28100000  *  155.85500000  * -48.86100000  *
   727       O         59.08900000  *  156.41100000  * -47.77900000  *
   728       N         59.23400000  *  154.52100000  * -48.98600000  *
   729       H         59.40600000  *  154.11800000  * -49.89800000  *
   730       C         58.92500000  *  153.59500000  * -47.88300000  *
   731       H         59.37400000  *  153.99200000  * -46.97100000  *
   732       C         57.39300000  *  153.56000000  * -47.68700000  *
   733       H         57.05400000  *  154.57500000  * -47.47700000  *
   734       H         56.91100000  *  153.23200000  * -48.60900000  *
   735       C         56.93700000  *  152.65000000  * -46.53400000  *
   736       H         56.80500000  *  151.63800000  * -46.91100000  *
   737       H         57.70400000  *  152.63900000  * -45.76100000  *
   738       C         55.64400000  *  153.11900000  * -45.87800000  *
   739       O         55.64800000  *  153.76900000  * -44.84500000  *
   740       N         54.49300000  *  152.80900000  * -46.43400000  *
   741       H         53.66100000  *  153.13500000  * -45.96500000  *
   742       H         54.46200000  *  152.30300000  * -47.30100000  *
   743       C         59.52500000  *  152.18700000  * -48.10400000  *
   744       O         59.69500000  *  151.75200000  * -49.24300000  *
   745       N         59.83800000  *  151.46800000  * -47.01900000  *
   746       H         59.66100000  *  151.86900000  * -46.11200000  *
   747       C         60.23500000  *  150.04900000  * -47.04800000  *
   748       H         60.55600000  *  149.80600000  * -48.05700000  *
   749       C         61.44600000  *  149.79200000  * -46.13100000  *
   750       H         61.80600000  *  148.78000000  * -46.32700000  *
   751       H         62.24800000  *  150.47600000  * -46.40700000  *
   752       C         61.15500000  *  149.91800000  * -44.63000000  *
   753       O         60.29900000  *  149.16300000  * -44.12500000  *
   754       O         61.80900000  *  150.74900000  * -43.95900000  *
   755       C         59.06000000  *  149.11000000  * -46.71600000  *
   756       O         58.03400000  *  149.53400000  * -46.16500000  *
   757       N         59.19100000  *  147.81900000  * -47.04800000  *
   758       H         60.03800000  *  147.50900000  * -47.52500000  *
   759       C         58.10100000  *  146.88000000  * -46.84100000  *
   760       H         57.21800000  *  147.32500000  * -47.29300000  *
   761       C         58.41200000  *  145.57700000  * -47.59200000  *
   762       H         58.61300000  *  145.80400000  * -48.64400000  *
   763       H         59.28800000  *  145.12100000  * -47.15800000  *
   764       C         57.28700000  *  144.52700000  * -47.51900000  *
   765       H         57.05600000  *  144.28000000  * -46.48700000  *
   766       C         56.00700000  *  145.04400000  * -48.19600000  *
   767       H         56.23500000  *  145.37800000  * -49.20200000  *
   768       H         55.26800000  *  144.24500000  * -48.23100000  *
   769       H         55.59500000  *  145.87000000  * -47.62900000  *
   770       C         57.76800000  *  143.24900000  * -48.17500000  *
   771       H         58.61500000  *  142.85400000  * -47.62000000  *
   772       H         56.97300000  *  142.50400000  * -48.17100000  *
   773       H         58.06400000  *  143.44500000  * -49.20700000  *
   774       C         57.76400000  *  146.61300000  * -45.36900000  *
   775       O         56.60900000  *  146.37600000  * -45.03000000  *
   776       N         58.75700000  *  146.67700000  * -44.48800000  *
   777       H         59.64000000  *  147.08600000  * -44.79000000  *
   778       C         58.49100000  *  146.46700000  * -43.07300000  *
   779       H         57.97900000  *  145.55100000  * -42.87200000  *
   780       C         59.78200000  *  146.47800000  * -42.25400000  *
   781       H         60.44800000  *  145.70000000  * -42.62000000  *
   782       H         60.28600000  *  147.44000000  * -42.35600000  *
   783       C         59.49200000  *  146.22900000  * -40.76500000  *
   784       H         58.94200000  *  147.08300000  * -40.37400000  *
   785       H         58.87100000  *  145.33200000  * -40.67600000  *
   786       C         60.74500000  *  146.03800000  * -39.93500000  *
   787       H         61.36100000  *  145.25900000  * -40.37900000  *
   788       H         61.30800000  *  146.97100000  * -39.90700000  *
   789       C         60.37600000  *  145.60700000  * -38.51700000  *
   790       H         59.98500000  *  144.58900000  * -38.53700000  *
   791       H         61.27900000  *  145.61300000  * -37.90300000  *
   792       N         59.34600000  *  146.53100000  * -37.94700000  *
   793       H         58.44600000  *  146.48100000  * -38.44300000  *
   794       H         59.09000000  *  146.27800000  * -37.00400000  *
   795       H         59.61300000  *  147.50600000  * -37.97800000  *
   796       C         57.55800000  *  147.53800000  * -42.51200000  *
   797       O         56.61300000  *  147.23400000  * -41.78300000  *
   798       N         57.83800000  *  148.81000000  * -42.80900000  *
   799       H         58.67200000  *  148.99200000  * -43.37300000  *
   800       C         57.02200000  *  149.93800000  * -42.34600000  *
   801       H         56.92200000  *  149.87200000  * -41.26100000  *
   802       C         57.73400000  *  151.25500000  * -42.68800000  *
   803       H         58.76200000  *  151.20100000  * -42.32400000  *
   804       H         57.75700000  *  151.38700000  * -43.77000000  *
   805       C         57.04800000  *  152.46300000  * -42.03000000  *
   806       H         56.04400000  *  152.57600000  * -42.43700000  *
   807       H         56.97000000  *  152.28900000  * -40.95500000  *
   808       C         57.84600000  *  153.75300000  * -42.26700000  *
   809       H         58.82700000  *  153.65700000  * -41.79900000  *
   810       H         57.97600000  *  153.91100000  * -43.33800000  *
   811       C         57.09900000  *  154.94600000  * -41.65800000  *
   812       H         56.12600000  *  155.03700000  * -42.14900000  *
   813       H         56.92100000  *  154.74300000  * -40.59800000  *
   814       N         57.86500000  *  156.21000000  * -41.80700000  *
   815       H         58.02700000  *  156.43000000  * -42.77800000  *
   816       H         57.36500000  *  156.98600000  * -41.39700000  *
   817       H         58.76200000  *  156.15000000  * -41.34600000  *
   818       C         55.61100000  *  149.84500000  * -42.92700000  *
   819       O         54.63700000  *  150.09200000  * -42.22200000  *
   820       N         55.49500000  *  149.42600000  * -44.18900000  *
   821       H         56.35000000  *  149.26300000  * -44.71300000  *
   822       C         54.20500000  *  149.26000000  * -44.85200000  *
   823       H         53.62600000  *  150.17500000  * -44.72500000  *
   824       C         54.41000000  *  148.98800000  * -46.34000000  *
   825       H         54.98900000  *  149.80200000  * -46.77700000  *
   826       H         55.00200000  *  148.07700000  * -46.45200000  *
   827       C         53.12600000  *  148.85300000  * -47.10800000  *
   828       C         52.23100000  *  149.92200000  * -47.18600000  *
   829       H         52.46300000  *  150.85600000  * -46.69900000  *
   830       C         51.01500000  *  149.79500000  * -47.88400000  *
   831       H         50.32500000  *  150.62800000  * -47.91800000  *
   832       C         50.69700000  *  148.60300000  * -48.50200000  *
   833       H         49.75200000  *  148.50200000  * -49.02000000  *
   834       C         51.58700000  *  147.52100000  * -48.43200000  *
   835       H         51.33500000  *  146.58300000  * -48.91200000  *
   836       C         52.79500000  *  147.65400000  * -47.73300000  *
   837       H         53.46700000  *  146.81000000  * -47.67200000  *
   838       C         53.37400000  *  148.12200000  * -44.22700000  *
   839       O         52.16900000  *  148.28300000  * -44.00900000  *
   840       N         54.01600000  *  146.98100000  * -43.96600000  *
   841       H         55.00900000  *  146.90600000  * -44.17900000  *
   842       C         53.33800000  *  145.83600000  * -43.34100000  *
   843       H         52.47600000  *  145.52800000  * -43.93400000  *
   844       C         54.29200000  *  144.65000000  * -43.17000000  *
   845       H         55.15800000  *  145.02700000  * -42.63600000  *
   846       H         53.80700000  *  143.89200000  * -42.54700000  *
   847       C         54.73100000  *  144.00400000  * -44.46100000  *
   848       H         53.84700000  *  143.61400000  * -44.95900000  *
   849       H         55.19200000  *  144.69400000  * -45.15000000  *
   850       S         55.79700000  *  142.58100000  * -44.15400000  *
   851       C         57.05400000  *  143.29200000  * -43.18800000  *
   852       H         56.67800000  *  143.65800000  * -42.23500000  *
   853       H         57.80700000  *  142.53400000  * -42.98200000  *
   854       H         57.44300000  *  144.07900000  * -43.80900000  *
   855       C         52.84400000  *  146.26000000  * -41.95900000  *
   856       O         51.68200000  *  146.03200000  * -41.61400000  *
   857       N         53.72600000  *  146.88400000  * -41.17900000  *
   858       H         54.70100000  *  146.95700000  * -41.45300000  *
   859       C         53.34300000  *  147.35100000  * -39.84600000  *
   860       H         53.03400000  *  146.49700000  * -39.23800000  *
   861       C         54.50500000  *  148.07700000  * -39.15700000  *
   862       H         54.94100000  *  148.81500000  * -39.83000000  *
   863       H         54.12400000  *  148.60600000  * -38.28400000  *
   864       C         55.58400000  *  147.11500000  * -38.68500000  *
   865       O         55.26200000  *  145.90900000  * -38.57600000  *
   866       O         56.73300000  *  147.55200000  * -38.41700000  *
   867       C         52.15000000  *  148.27900000  * -39.96300000  *
   868       O         51.20300000  *  148.18000000  * -39.18700000  *
   869       N         52.18300000  *  149.16200000  * -40.95500000  *
   870       H         53.01600000  *  149.23700000  * -41.51800000  *
   871       C         51.08600000  *  150.10000000  * -41.17300000  *
   872       H         50.93100000  *  150.67400000  * -40.25800000  *
   873       C         51.42800000  *  151.06800000  * -42.31500000  *
   874       H         51.45500000  *  150.53900000  * -43.26600000  *
   875       H         50.66000000  *  151.83800000  * -42.36800000  *
   876       H         52.39300000  *  151.53600000  * -42.12800000  *
   877       C         49.78900000  *  149.37000000  * -41.49900000  *
   878       O         48.71100000  *  149.83600000  * -41.15600000  *
   879       N         49.90500000  *  148.22900000  * -42.16400000  *
   880       H         50.83800000  *  147.88500000  * -42.38200000  *
   881       C         48.74000000  *  147.45400000  * -42.57500000  *
   882       H         47.85700000  *  148.08600000  * -42.62800000  *
   883       H         48.90600000  *  147.02300000  * -43.58600000  *
   884       H         48.52600000  *  146.61900000  * -41.88800000  *
   885       H         72.54500000  *  137.05800000  * -55.15200000  *
   886       C         72.38600000  *  137.90500000  * -54.47400000  *
   887       O         73.28300000  *  138.71900000  * -54.28600000  *
   888       N         71.20100000  *  138.01500000  * -53.89800000  *
   889       H         70.47300000  *  137.31400000  * -54.05700000  *
   890       C         70.96800000  *  139.10000000  * -52.94900000  *
   891       H         71.50000000  *  140.00600000  * -53.22900000  *
   892       C         69.47700000  *  139.40500000  * -52.82500000  *
   893       H         69.09300000  *  139.71900000  * -53.79200000  *
   894       H         68.93000000  *  138.50600000  * -52.53300000  *
   895       C         69.17800000  *  140.45400000  * -51.81200000  *
   896       N         69.23000000  *  140.42300000  * -50.45900000  *
   897       C         68.94700000  *  141.69100000  * -50.01400000  *
   898       H         68.96900000  *  142.01200000  * -48.98400000  *
   899       N         68.72400000  *  142.47200000  * -51.05500000  *
   900       H         68.47200000  *  143.44500000  * -51.00700000  *
   901       C         68.85400000  *  141.75000000  * -52.15500000  *
   902       H         68.77100000  *  142.12600000  * -53.16500000  *
   903       C         71.52100000  *  138.65700000  * -51.58300000  *
   904       O         72.28000000  *  139.38000000  * -50.94700000  *
   905       N         71.11400000  *  137.47100000  * -51.14500000  *
   906       H         70.37100000  *  137.01600000  * -51.66500000  *
   907       C         71.55500000  *  136.88000000  * -49.87700000  *
   908       H         71.18200000  *  135.84900000  * -49.87900000  *
   909       C         73.07600000  *  136.85300000  * -49.83700000  *
   910       H         73.53100000  *  137.83300000  * -49.86900000  *
   911       H         73.36600000  *  136.47900000  * -48.85100000  *
   912       C         73.64700000  *  135.85900000  * -50.81700000  *
   913       H         73.29800000  *  134.87100000  * -50.67200000  *
   914       H         73.21600000  *  136.10500000  * -51.78700000  *
   915       C         75.11700000  *  136.08400000  * -50.99900000  *
   916       H         75.61200000  *  135.95400000  * -50.03300000  *
   917       H         75.49500000  *  135.33200000  * -51.69500000  *
   918       N         75.35800000  *  137.42700000  * -51.50600000  *
   919       H         74.62100000  *  138.12700000  * -51.38200000  *
   920       C         76.54800000  *  137.85900000  * -51.89000000  *
   921       N         77.59300000  *  137.04400000  * -51.81500000  *
   922       H         77.44700000  *  136.21200000  * -51.26800000  *
   923       H         78.49900000  *  137.44300000  * -51.92100000  *
   924       N         76.69000000  *  139.09300000  * -52.35600000  *
   925       H         75.86000000  *  139.69200000  * -52.33800000  *
   926       H         77.56200000  *  139.47800000  * -52.67100000  *
   927       C         71.03700000  *  137.42400000  * -48.54200000  *
   928       O         71.18700000  *  136.76800000  * -47.50900000  *
   929       N         70.43700000  *  138.60400000  * -48.51600000  *
   930       H         70.32800000  *  139.16900000  * -49.34700000  *
   931       C         69.93700000  *  139.07600000  * -47.23100000  *
   932       H         69.76500000  *  138.24900000  * -46.54100000  *
   933       C         70.93500000  *  140.04200000  * -46.56200000  *
   934       H         71.90900000  *  139.56600000  * -46.50900000  *
   935       H         71.04400000  *  140.94300000  * -47.17900000  *
   936       C         70.51300000  *  140.42800000  * -45.14700000  *
   937       O         70.17200000  *  139.51500000  * -44.35500000  *
   938       O         70.51000000  *  141.64400000  * -44.82500000  *
   939       C         68.58700000  *  139.73400000  * -47.37800000  *
   940       O         68.35000000  *  140.81000000  * -46.83500000  *
   941       N         67.68700000  *  139.08300000  * -48.11000000  *
   942       H         67.94300000  *  138.20800000  * -48.54500000  *
   943       C         66.35900000  *  139.64900000  * -48.29900000  *
   944       H         66.47700000  *  140.66700000  * -48.65900000  *
   945       C         65.54600000  *  138.81300000  * -49.28800000  *
   946       H         65.58300000  *  137.78400000  * -48.94500000  *
   947       H         64.50600000  *  139.14000000  * -49.25500000  *
   948       C         66.02700000  *  138.85500000  * -50.73600000  *
   949       H         67.06400000  *  138.52800000  * -50.78200000  *
   950       C         65.17300000  *  137.91700000  * -51.58300000  *
   951       H         64.15900000  *  138.30500000  * -51.68800000  *
   952       H         65.63400000  *  137.80700000  * -52.55000000  *
   953       H         65.13400000  *  136.93500000  * -51.11000000  *
   954       C         65.92100000  *  140.27700000  * -51.26400000  *
   955       H         66.42000000  *  140.99600000  * -50.63300000  *
   956       H         66.44200000  *  140.27500000  * -52.20900000  *
   957       H         64.88200000  *  140.56100000  * -51.39700000  *
   958       C         65.59400000  *  139.73400000  * -46.98200000  *
   959       O         65.58600000  *  138.79200000  * -46.16600000  *
   960       N         64.96100000  *  140.85800000  * -46.74000000  *
   961       H         64.96900000  *  141.59000000  * -47.43700000  *
   962       C         64.17300000  *  141.06600000  * -45.53900000  *
   963       H         63.56200000  *  140.17400000  * -45.39800000  *
   964       C         65.05200000  *  141.23000000  * -44.27800000  *
   965       H         64.41500000  *  141.28700000  * -43.39400000  *
   966       H         65.65400000  *  140.32900000  * -44.16400000  *
   967       C         65.98400000  *  142.44900000  * -44.27500000  *
   968       H         66.38800000  *  142.60100000  * -45.27200000  *
   969       H         65.42600000  *  143.33600000  * -43.97500000  *
   970       C         67.14700000  *  142.19500000  * -43.30700000  *
   971       H         66.75600000  *  141.91800000  * -42.32500000  *
   972       H         67.73000000  *  141.35700000  * -43.69900000  *
   973       C         68.05000000  *  143.42400000  * -43.15900000  *
   974       H         68.13300000  *  143.92400000  * -44.12900000  *
   975       H         67.57400000  *  144.12600000  * -42.46400000  *
   976       N         69.39900000  *  143.03100000  * -42.67200000  *
   977       H         69.87500000  *  142.44200000  * -43.36900000  *
   978       H         69.97200000  *  143.84400000  * -42.48200000  *
   979       H         69.32900000  *  142.50400000  * -41.81100000  *
   980       C         63.26900000  *  142.23200000  * -45.83100000  *
   981       O         63.63000000  *  143.07600000  * -46.65100000  *
   982       N         62.11200000  *  142.30300000  * -45.18600000  *
   983       C         61.62600000  *  141.34600000  * -44.17100000  *
   984       H         62.10000000  *  141.53200000  * -43.20900000  *
   985       H         61.74500000  *  140.31100000  * -44.47600000  *
   986       C         60.16400000  *  141.66900000  * -44.09500000  *
   987       H         59.73700000  *  141.34900000  * -43.14300000  *
   988       H         59.63700000  *  141.20600000  * -44.93200000  *
   989       C         60.16000000  *  143.18900000  * -44.24800000  *
   990       H         60.51600000  *  143.64900000  * -43.32100000  *
   991       H         59.20200000  *  143.56500000  * -44.57400000  *
   992       C         61.14500000  *  143.38000000  * -45.40300000  *
   993       H         60.63400000  *  143.20500000  * -46.34500000  *
   994       C         61.77100000  *  144.77100000  * -45.44800000  *
   995       O         61.39200000  *  145.58400000  * -46.27300000  *
   996       N         62.72200000  *  145.09600000  * -44.55500000  *
   997       H         62.96800000  *  144.41300000  * -43.85400000  *
   998       C         63.42600000  *  146.40200000  * -44.53600000  *
   999       H         62.68600000  *  147.20000000  * -44.45300000  *
  1000       C         64.37500000  *  146.49000000  * -43.32700000  *
  1001       H         65.06500000  *  145.64600000  * -43.35200000  *
  1002       H         64.96400000  *  147.40500000  * -43.41700000  *
  1003       C         63.66400000  *  146.53400000  * -41.96900000  *
  1004       H         62.96100000  *  147.36800000  * -41.96700000  *
  1005       H         63.11000000  *  145.60900000  * -41.81800000  *
  1006       C         64.65300000  *  146.69600000  * -40.81300000  *
  1007       O         65.66700000  *  146.01700000  * -40.72700000  *
  1008       N         64.40000000  *  147.58300000  * -39.87500000  *
  1009       H         65.06200000  *  147.67900000  * -39.11900000  *
  1010       H         63.59300000  *  148.18500000  * -39.93300000  *
  1011       C         64.26500000  *  146.69000000  * -45.79800000  *
  1012       O         64.47500000  *  147.84500000  * -46.15900000  *
  1013       N         64.74400000  *  145.63900000  * -46.46800000  *
  1014       H         64.44800000  *  144.72100000  * -46.16800000  *
  1015       C         65.52900000  *  145.69700000  * -47.70100000  *
  1016       H         66.09900000  *  146.62800000  * -47.72500000  *
  1017       C         66.53200000  *  144.51300000  * -47.71900000  *
  1018       H         66.01100000  *  143.58500000  * -47.50400000  *
  1019       H         66.94900000  *  144.41600000  * -48.71800000  *
  1020       C         67.71800000  *  144.65400000  * -46.77300000  *
  1021       O         67.96400000  *  145.68900000  * -46.17700000  *
  1022       N         68.50900000  *  143.62000000  * -46.59800000  *
  1023       H         69.34700000  *  143.73800000  * -46.05300000  *
  1024       H         68.28300000  *  142.68700000  * -46.92900000  *
  1025       C         64.63400000  *  145.71600000  * -48.96000000  *
  1026       O         65.16700000  *  145.64200000  * -50.06500000  *
  1027       N         63.30000000  *  145.80300000  * -48.83400000  *
  1028       H         62.89500000  *  145.87300000  * -47.90900000  *
  1029       C         62.40600000  *  145.84500000  * -49.97900000  *
  1030       H         62.94700000  *  145.74800000  * -50.91900000  *
  1031       C         61.36900000  *  144.72100000  * -49.88900000  *
  1032       H         60.76900000  *  144.86100000  * -48.99200000  *
  1033       H         60.74400000  *  144.79800000  * -50.77200000  *
  1034       C         62.03600000  *  143.32400000  * -49.85900000  *
  1035       H         62.67100000  *  143.24000000  * -48.98800000  *
  1036       C         61.00200000  *  142.26000000  * -49.77100000  *
  1037       H         60.24600000  *  142.42800000  * -50.53400000  *
  1038       H         61.44700000  *  141.27100000  * -49.89000000  *
  1039       H         60.52000000  *  142.31900000  * -48.79800000  *
  1040       C         62.89500000  *  143.12600000  * -51.08400000  *
  1041       H         63.82900000  *  143.66800000  * -50.95600000  *
  1042       H         63.12900000  *  142.06900000  * -51.20900000  *
  1043       H         62.39300000  *  143.49200000  * -51.96600000  *
  1044       C         61.76300000  *  147.21800000  * -49.95200000  *
  1045       O         61.15000000  *  147.60200000  * -48.96600000  *
  1046       N         61.89200000  *  147.98600000  * -51.02700000  *
  1047       H         62.38500000  *  147.61800000  * -51.83500000  *
  1048       C         61.44400000  *  149.37800000  * -51.05300000  *
  1049       H         61.04900000  *  149.66900000  * -50.08200000  *
  1050       C         62.61900000  *  150.30200000  * -51.35900000  *
  1051       H         62.95100000  *  150.12000000  * -52.38200000  *
  1052       H         62.25300000  *  151.32200000  * -51.28300000  *
  1053       C         63.81800000  *  150.13300000  * -50.41600000  *
  1054       H         64.24000000  *  149.13700000  * -50.53000000  *
  1055       C         64.86100000  *  151.15700000  * -50.81600000  *
  1056       H         64.50100000  *  152.15200000  * -50.56300000  *
  1057       H         65.78600000  *  150.94400000  * -50.28500000  *
  1058       H         65.04900000  *  151.12600000  * -51.88200000  *
  1059       C         63.48400000  *  150.36100000  * -48.94400000  *
  1060       H         62.85200000  *  149.55400000  * -48.58500000  *
  1061       H         64.39900000  *  150.35900000  * -48.35300000  *
  1062       H         62.97000000  *  151.31200000  * -48.81300000  *
  1063       C         60.32600000  *  149.56600000  * -52.06100000  *
  1064       O         60.42600000  *  149.10400000  * -53.18600000  *
  1065       N         59.26800000  *  150.25600000  * -51.67700000  *
  1066       H         59.36500000  *  150.76300000  * -50.80000000  *
  1067       C         58.08300000  *  150.44700000  * -52.50800000  *
  1068       H         58.17300000  *  149.92400000  * -53.45700000  *
  1069       C         56.81900000  *  149.90600000  * -51.78600000  *
  1070       H         55.94300000  *  150.08700000  * -52.41500000  *
  1071       C         56.95000000  *  148.40400000  * -51.54300000  *
  1072       H         57.75300000  *  148.18300000  * -50.83300000  *
  1073       H         56.01300000  *  148.00400000  * -51.15200000  *
  1074       H         57.15800000  *  147.91500000  * -52.48900000  *
  1075       C         56.64700000  *  150.60600000  * -50.43300000  *
  1076       H         57.48200000  *  150.38000000  * -49.77500000  *
  1077       H         56.60500000  *  151.68300000  * -50.57600000  *
  1078       C         55.37000000  *  150.22200000  * -49.68600000  *
  1079       H         55.48900000  *  149.24800000  * -49.22200000  *
  1080       H         55.17000000  *  150.96500000  * -48.91000000  *
  1081       H         54.52900000  *  150.16800000  * -50.38500000  *
  1082       C         57.87200000  *  151.93000000  * -52.81700000  *
  1083       O         58.38200000  *  152.79400000  * -52.10000000  *
  1084       N         57.14900000  *  152.22000000  * -53.89700000  *
  1085       H         56.70500000  *  151.48200000  * -54.43300000  *
  1086       C         56.84100000  *  153.60200000  * -54.22700000  *
  1087       H         57.16800000  *  154.27800000  * -53.43100000  *
  1088       C         57.50400000  *  154.05300000  * -55.54100000  *
  1089       H         57.21800000  *  155.07000000  * -55.80500000  *
  1090       H         58.58200000  *  154.04400000  * -55.38800000  *
  1091       C         57.19300000  *  153.14600000  * -56.70100000  *
  1092       O         56.13500000  *  152.53500000  * -56.76400000  *
  1093       N         58.11500000  *  153.07200000  * -57.64100000  *
  1094       H         57.83300000  *  152.61700000  * -58.48600000  *
  1095       H         58.88600000  *  153.71500000  * -57.62100000  *
  1096       C         55.33100000  *  153.75800000  * -54.32100000  *
  1097       O         54.57600000  *  152.79900000  * -54.11400000  *
  1098       N         54.88500000  *  154.97100000  * -54.62100000  *
  1099       H         55.52100000  *  155.73600000  * -54.79200000  *
  1100       C         53.46400000  *  155.24700000  * -54.72300000  *
  1101       H         52.92700000  *  154.82600000  * -53.87200000  *
  1102       C         53.20900000  *  156.78000000  * -54.75500000  *
  1103       H         52.16900000  *  156.98000000  * -55.02600000  *
  1104       C         53.47800000  *  157.39700000  * -53.41000000  *
  1105       H         54.52100000  *  157.25500000  * -53.13000000  *
[...]
 1005  H   0.85298
 1006  C   1.06702   0.81297   0.75233   0.79863
 1007  O   1.88322   1.36279   1.54020   1.79080
 1008  N   1.52766   1.35046   1.41840   1.33658
 1009  H   0.66514
 1010  H   0.69227
 1011  C   1.08301   0.76688   0.79134   0.81901
 1012  O   1.88876   1.62772   1.28691   1.70907
 1013  N   1.55182   1.51869   1.20160   1.30824
 1014  H   0.67240
 1015  C   1.07158   0.94298   1.09028   0.82188
 1016  H   0.80473
 1017  C   1.06956   1.06059   1.09210   1.15195
 1018  H   0.83464
 1019  H   0.80598
 1020  C   1.06102   0.80468   0.77676   0.78356
 1021  O   1.88064   1.75545   1.40524   1.55177
 1022  N   1.53287   1.32255   1.20982   1.57759
 1023  H   0.66943
 1024  H   0.65930
 1025  C   1.09040   0.78435   0.71296   0.85341
 1026  O   1.87730   1.76686   1.62405   1.39323
 1027  N   1.54109   1.12598   1.65982   1.18471
 1028  H   0.65037
 1029  C   1.06941   0.96854   0.98354   0.97290
 1030  H   0.81567
 1031  C   1.06726   1.06531   0.99358   1.17596
 1032  H   0.83251
 1033  H   0.84871
 1034  C   1.04097   1.01076   0.95070   1.05946
 1035  H   0.85399
 1036  C   1.04882   1.12522   1.11250   1.17399
 1037  H   0.84832
 1038  H   0.85740
 1039  H   0.86049
 1040  C   1.05131   1.14355   1.16447   1.10229
 1041  H   0.84465
 1042  H   0.86462
 1043  H   0.85128
 1044  C   1.07606   0.75432   0.84281   0.75938
 1045  O   1.87361   1.52658   1.79187   1.43764
 1046  N   1.54578   1.56062   1.17282   1.24726
 1047  H   0.64984
 1048  C   1.06520   0.98813   0.82326   1.10387
 1049  H   0.80913
 1050  C   1.06438   1.02417   1.10745   1.12098
 1051  H   0.85270
 1052  H   0.83804
 1053  C   1.04844   0.96412   1.06509   0.97949
 1054  H   0.87029
 1055  C   1.05376   1.12116   1.13785   1.15707
 1056  H   0.84362
 1057  H   0.86029
 1058  H   0.86464
 1059  C   1.05491   1.18137   1.18367   1.03263
 1060  H   0.83557
 1061  H   0.84960
 1062  H   0.84319
 1063  C   1.07558   0.79879   0.74300   0.81490
 1064  O   1.86827   1.83517   1.63120   1.34824
 1065  N   1.54226   1.18722   1.46668   1.29722
 1066  H   0.64002
 1067  C   1.07603   0.89262   1.00300   1.03993
 1068  H   0.81465
 1069  C   1.06493   1.01386   0.99080   1.02317
 1070  H   0.84069
 1071  C   1.05433   1.18003   1.03682   1.17290
 1072  H   0.84470
 1073  H   0.84630
 1074  H   0.85595
 1075  C   1.05404   1.07348   1.11920   1.02973
 1076  H   0.84637
 1077  H   0.86154
 1078  C   1.05250   1.08488   1.16088   1.13171
 1079  H   0.84622
 1080  H   0.87463
 1081  H   0.84789
 1082  C   1.08723   0.74069   0.88941   0.74128
 1083  O   1.88696   1.56938   1.57731   1.55349
 1084  N   1.54365   1.50771   1.14244   1.34146
 1085  H   0.63891
 1086  C   1.06102   0.99407   0.88772   1.01536
 1087  H   0.80630
 1088  C   1.07109   1.17448   1.11345   1.04320
 1089  H   0.83008
 1090  H   0.81698
 1091  C   1.06761   0.77861   0.79259   0.82270
 1092  O   1.88771   1.30757   1.50629   1.80340
 1093  N   1.53679   1.31200   1.52170   1.27895
 1094  H   0.69309
 1095  H   0.69408
 1096  C   1.08087   0.88519   0.77765   0.75136
 1097  O   1.89443   1.62448   1.43475   1.52635
 1098  N   1.54119   1.14511   1.19521   1.69363
 1099  H   0.67688
 1100  C   1.08536   0.83326   1.04090   1.09583
 1101  H   0.80900
 1102  C   1.08452   0.98686   0.88303   0.88955
 1103  H   0.85797
 1104  C   1.05302   1.18526   1.17296   1.05389
 1105  H   0.83942
 1106  H   0.83160
 1107  H   0.83366
 1108  O   1.85147   1.58071   1.82053   1.32251
 1109  H   0.67566
 1110  C   1.07465   0.81030   0.77005   0.81930
 1111  O   1.88598   1.23156   1.61621   1.81387
 1112  N   1.53432   1.18216   1.58151   1.22131
 1113  H   0.69130
 1114  C   1.05382   1.13275   1.13987   0.88765
 1115  H   0.84120
 1116  H   0.87152
 1117  H   0.83540
 1118  H   0.86763
 1119  C   1.10020   0.76464   0.75338   0.92060
 1120  O   1.88719   1.66985   1.57171   1.45694
 1121  N   1.54652   1.44428   1.35139   1.20800
 1122  H   0.67426
 1123  C   1.08022   0.92955   1.08536   0.92420
 1124  H   0.81007
 1125  C   1.07315   1.07898   0.95463   0.98266
 1126  H   0.84438
 1127  C   1.05753   1.18808   1.08039   1.12370
 1128  H   0.83785
 1129  H   0.85399
 1130  H   0.85834
 1131  C   1.05397   1.07454   1.13478   1.01852
 1132  H   0.85605
 1133  H   0.85306
 1134  C   1.04893   1.14436   1.14773   1.09032
 1135  H   0.85582
 1136  H   0.85948
 1137  H   0.84912
 1138  C   1.07505   0.84249   0.74915   0.79231
 1139  O   1.88226   1.88196   1.48237   1.36307
 1140  N   1.54639   1.09804   1.54181   1.34237
 1141  H   0.63182
 1142  C   1.06852   0.84969   1.04336   1.03840
 1143  H   0.81418
 1144  C   1.05974   1.08846   1.05610   1.09055
 1145  H   0.83176
 1146  H   0.84682
 1147  C   1.05088   1.08874   1.03317   1.08261
 1148  H   0.85968
 1149  H   0.83936
 1150  C   1.06107   1.07577   1.05707   1.09760
 1151  H   0.82446
 1152  H   0.82670
 1153  C   1.08102   1.03065   0.99313   1.07481
 1154  H   0.83804
 1155  H   0.82674
 1156  N   1.46554   1.23021   1.24649   1.25997
 1157  H   0.65576
 1158  H   0.69930
 1159  H   0.73182
 1160  C   1.07989   0.77827   0.75065   0.82898
 1161  O   1.88201   1.76757   1.68868   1.28804
 1162  N   1.54490   1.33092   1.42961   1.22896
 1163  H   0.64214
 1164  C   1.06978   0.91879   0.95580   1.02973
 1165  H   0.83173
 1166  C   1.06261   1.09794   1.02055   1.13375
 1167  H   0.83433
 1168  H   0.84853
 1169  C   1.05389   1.07600   0.96008   0.95826
 1170  H   0.85400
 1171  C   1.06150   1.15489   1.13922   1.09670
 1172  H   0.86262
 1173  H   0.85264
 1174  H   0.84785
 1175  C   1.05712   1.17429   1.13655   1.09486
 1176  H   0.85069
 1177  H   0.85376
 1178  H   0.86060
 1179  C   1.08521   0.79320   0.80050   0.75856
 1180  O   1.88125   1.63303   1.59709   1.53637
 1181  N   1.54280   1.36633   1.43714   1.16317
 1182  H   0.64162
 1183  C   1.06642   0.91819   0.92885   1.04675
 1184  H   0.83130
 1185  C   1.05929   1.16197   1.06686   1.17012
 1186  H   0.81701
 1187  H   0.85501
 1188  H   0.81695
 1189  C   1.08980   0.78129   0.78689   0.74978
 1190  O   1.87320   1.82893   1.35956   1.58551
 1191  N   1.54812   1.18009   1.32615   1.49796
 1192  H   0.68720
 1193  C   1.07539   0.87764   1.07027   0.93979
 1194  H   0.83656
 1195  C   1.07827   1.15516   1.17060   1.00918
 1196  H   0.80362
 1197  H   0.83254
 1198  C   1.06863   0.73147   0.73661   0.69094
 1199  O   1.88750   1.66436   1.46702   1.70212
 1200  O   1.86982   1.80888   1.45157   1.74799
 1201  C   1.08796   0.81850   0.79641   0.75244
 1202  O   1.88722   1.28810   1.79269   1.57295
 1203  N   1.56637   1.29159   1.17072   1.53788
 1204  H   0.68141
 1205  C   1.07985   1.01862   0.91585   0.95451
 1206  H   0.84133
 1207  C   1.05592   1.08067   1.20377   0.95963
 1208  H   0.81496
 1209  H   0.81653
 1210  C   1.07366   0.97054   0.97752   0.97061
 1211  C   1.08861   1.03617   1.04180   1.01320
 1212  H   0.84194
 1213  C   1.08475   0.99223   1.05635   1.01706
 1214  H   0.85904
 1215  C   1.08697   1.05805   0.99209   1.02816
 1216  H   0.84923
 1217  C   1.08964   1.03662   1.03386   0.98358
 1218  H   0.83048
 1219  C   1.08681   0.98619   1.05938   1.02112
 1220  H   0.84362
 1221  C   1.08987   0.80376   0.77448   0.76282
 1222  O   1.88495   1.44598   1.56359   1.71419
 1223  N   1.53940   1.41488   1.43509   1.13507
 1224  H   0.67911
 1225  C   1.06880   0.98389   1.07034   0.98592
 1226  H   0.81101
 1227  H   0.80415
 1228  C   1.07984   0.82930   0.77483   0.70302
 1229  O   1.87529   1.84498   1.33291   1.62704
 1230  N   1.55621   1.29190   1.23419   1.44021
 1231  H   0.66858
 1232  C   1.07727   0.89965   1.03800   0.96048
 1233  H   0.84906
 1234  C   1.06844   1.11066   0.94595   1.18211
 1235  H   0.82669
 1236  H   0.83424
 1237  C   1.05189   1.03215   0.96404   1.00751
 1238  H   0.86309
 1239  C   1.05600   1.16831   1.06305   1.16714
 1240  H   0.85547
 1241  H   0.84546
 1242  H   0.85279
 1243  C   1.05579   1.17204   1.18814   1.04783
 1244  H   0.84506
 1245  H   0.83805
 1246  H   0.85955
 1247  C   1.09696   0.86598   0.76788   0.73924
 1248  O   1.88378   1.31142   1.77476   1.56730
 1249  N   1.58485   1.28103   1.24173   1.53039
 1250  H   0.66471
 1251  C   1.06941   0.95943   0.98980   0.96231
 1252  H   0.82478
 1253  C   1.05734   1.14344   1.09978   1.16261
 1254  H   0.86498
 1255  H   0.82100
 1256  H   0.81228
 1257  C   1.07880   0.84935   0.76911   0.78339
 1258  O   1.89119   1.45719   1.52824   1.62169
 1259  N   1.54613   1.31334   1.54431   1.15328
 1260  H   0.70127
 1261  C   1.06025   0.93104   1.14799   1.09007
 1262  H   0.81723
 1263  H   0.85580
 1264  H   0.84418
 1265  H   0.88547
 1266  C   1.09717   0.75887   0.82380   0.86999
 1267  O   1.89047   1.47000   1.31229   1.86349
 1268  N   1.54391   1.50163   1.35446   1.15129
 1269  H   0.69052
 1270  C   1.07225   1.10790   0.96309   0.82198
 1271  H   0.80430
 1272  C   1.05809   1.09693   1.03282   1.14043
 1273  H   0.83945
 1274  H   0.83376
 1275  C   1.06463   0.97553   0.94779   0.96710
 1276  C   1.08137   1.01358   0.99073   1.05582
 1277  H   0.84798
 1278  C   1.08021   1.03479   1.02496   0.99568
 1279  H   0.85639
 1280  C   1.07812   1.00878   1.05282   1.02442
 1281  H   0.86203
 1282  C   1.07767   1.02514   1.00551   1.05006
 1283  H   0.86413
 1284  C   1.08048   1.06023   1.02570   0.99977
 1285  H   0.84774
 1286  C   1.08372   0.77226   0.80315   0.81735
 1287  O   1.89078   1.50339   1.62965   1.48209
 1288  N   1.53999   1.18303   1.36154   1.44859
 1289  H   0.67838
 1290  C   1.05560   1.13017   0.97886   0.99595
 1291  H   0.83588
 1292  H   0.79607
 1293  C   1.07765   0.78714   0.75995   0.80414
 1294  O   1.87365   1.54173   1.38653   1.83443
 1295  N   1.53526   1.40923   1.37230   1.18502
 1296  H   0.67061
 1297  C   1.07394   1.00540   1.18569   0.89170
 1298  H   0.81554
 1299  H   0.81559
 1300  C   1.07886   0.79687   0.76150   0.81357
 1301  O   1.89011   1.46397   1.49156   1.68871
 1302  N   1.56554   1.46207   1.16927   1.27051
 1303  C   1.06827   1.06585   0.87093   1.05084
 1304  H   0.84430
 1305  H   0.84884
 1306  C   1.05757   1.03506   1.14357   1.06225
 1307  H   0.83982
 1308  H   0.79815
 1309  C   1.05944   1.09414   0.99321   1.15170
 1310  H   0.85809
 1311  H   0.83267
 1312  C   1.07056   1.04398   0.98707   0.88018
 1313  H   0.83385
 1314  C   1.09133   0.79079   0.79431   0.82256
 1315  O   1.89222   1.35960   1.36173   1.85872
 1316  N   1.54614   1.41379   1.50937   1.12653
 1317  H   0.68434
 1318  C   1.07856   1.04422   1.12150   0.88187
 1319  H   0.80289
 1320  H   0.82131
 1321  C   1.08610   0.82894   0.73289   0.78189
 1322  O   1.88599   1.69526   1.71573   1.32135
 1323  N   1.55274   1.23485   1.41498   1.34519
 1324  H   0.68878
 1325  C   1.07638   0.85841   1.06002   0.98289
 1326  H   0.82262
 1327  C   1.05904   1.17691   1.07706   0.96469
 1328  H   0.84743
 1329  H   0.82256
 1330  C   1.05757   1.11772   1.05719   1.05050
 1331  H   0.83358
 1332  H   0.87478
 1333  C   1.06934   1.10902   1.11921   0.74604
 1334  H   0.83601
 1335  H   0.80746
 1336  N   1.53394   1.59277   1.27307   1.10593
 1337  H   0.67029
 1338  C   0.97633   0.84037   0.80647   0.79178
 1339  N   1.49889   1.55660   1.25219   1.24768
 1340  H   0.64589
 1341  H   0.65740
 1342  N   1.50166   1.59048   1.35404   1.14267
 1343  H   0.66378
 1344  H   0.65939
 1345  C   1.08042   0.77713   0.78184   0.84601
 1346  O   1.89143   1.44940   1.63078   1.54537
 1347  N   1.54293   1.55326   1.19455   1.24198
 1348  H   0.68936
 1349  C   1.09100   1.00851   1.01060   0.91165
 1350  H   0.80296
 1351  C   1.08448   0.92334   0.92622   0.88715
 1352  H   0.85188
 1353  C   1.05835   1.10822   1.12672   1.19996
 1354  H   0.82488
 1355  H   0.82819
 1356  H   0.84224
 1357  O   1.84283   1.59267   1.64037   1.56041
 1358  H   0.61086
 1359  C   1.07929   0.81684   0.79831   0.77243
 1360  O   1.88901   1.52472   1.78921   1.35903
 1361  N   1.55414   1.33133   1.29538   1.37680
 1362  H   0.64986
 1363  C   1.07374   0.97509   0.92501   1.00632
 1364  H   0.83130
 1365  C   1.05692   1.09340   1.06701   1.08482
 1366  H   0.85150
 1367  H   0.83277
 1368  C   1.05771   0.97078   0.97392   1.08363
 1369  C   1.08207   0.97487   1.07515   0.99622
 1370  H   0.85167
 1371  C   1.08530   1.08090   0.99951   1.00309
 1372  H   0.80414
 1373  C   1.06969   0.83594   0.89436   0.86341
 1374  O   1.84141   1.45908   1.54098   1.69710
 1375  H   0.59642
 1376  C   1.07108   0.99571   1.09219   1.08662
 1377  H   0.85569
 1378  C   1.07729   1.05293   1.00363   1.02114
 1379  H   0.87758
 1380  C   1.08223   0.79258   0.75796   0.82374
 1381  O   1.88959   1.35965   1.51339   1.81059
 1382  N   1.55308   1.20493   1.61400   1.14965
 1383  H   0.65926
 1384  C   1.08592   1.09370   1.05495   0.83742
 1385  H   0.85034
 1386  C   1.08024   0.85450   0.86949   1.00681
 1387  H   0.87887
 1388  C   1.05614   1.09519   1.13638   1.19031
 1389  H   0.83105
 1390  H   0.85639
 1391  H   0.85310
 1392  O   1.85005   1.30768   1.76140   1.64670
 1393  H   0.59938
 1394  C   1.08864   0.86128   0.77055   0.80791
 1395  O   1.89637   1.23769   1.65269   1.60068
 1396  N   1.54735   1.20481   1.30488   1.51984
 1397  H   0.69386
 1398  C   1.06718   1.01880   1.01465   1.05299
 1399  H   0.88132
 1400  H   0.84551
 1401  C   1.06965   0.85167   0.75599   0.78776
 1402  O   1.89311   1.66820   1.38016   1.51140
 1403  N   1.55713   1.14841   1.53509   1.33762
 1404  H   0.68914
 1405  C   1.07225   0.82291   0.97447   1.14183
 1406  H   0.83300
 1407  C   1.05674   1.16594   1.00931   1.02569
 1408  H   0.84815
 1409  H   0.83008
 1410  C   1.06044   1.20335   0.98309   1.16537
 1411  H   0.83563
 1412  H   0.83606
 1413  C   1.06197   0.74053   0.72287   0.73475
 1414  O   1.89259   1.42768   1.79713   1.60759
 1415  O   1.88378   1.53490   1.57950   1.81725
 1416  C   1.09493   0.76509   0.86736   0.74678
 1417  O   1.88697   1.65395   1.65728   1.40315
 1418  N   1.54803   1.31575   1.19221   1.48980
 1419  H   0.67117
 1420  C   1.07024   1.04635   0.86934   1.02924
 1421  H   0.87179
 1422  C   1.05523   1.03140   1.04096   0.95575
 1423  H   0.82476
 1424  C   1.05492   1.16604   1.03677   1.20501
 1425  H   0.86116
 1426  H   0.84214
 1427  H   0.82101
 1428  C   1.05352   1.16782   1.15501   1.07926
 1429  H   0.85339
 1430  H   0.84007
 1431  H   0.87288
 1432  C   1.07377   0.79248   0.74886   0.84327
 1433  O   1.88974   1.32205   1.58683   1.74380
 1434  N   1.53880   1.27326   1.49325   1.21301
 1435  H   0.68166
 1436  C   1.07438   1.00912   1.04583   0.86618
 1437  H   0.84281
 1438  C   1.06135   1.03042   1.01683   0.97979
 1439  H   0.83869
 1440  C   1.05312   1.18236   1.10069   1.10934
 1441  H   0.83371
 1442  H   0.84895
 1443  H   0.86523
 1444  C   1.05652   1.19172   1.16277   1.04375
 1445  H   0.86074
 1446  H   0.83729
 1447  H   0.83028
 1448  C   1.08291   0.80948   0.79864   0.76217
 1449  O   1.88747   1.79485   1.44268   1.43278
 1450  N   1.53613   1.24348   1.43826   1.31515
 1451  H   0.68505
 1452  C   1.07802   0.90329   0.96821   1.14045
 1453  H   0.81616
 1454  C   1.07868   0.93195   0.84245   0.98927
 1455  H   0.87348
 1456  C   1.05580   1.09995   1.13383   1.18162
 1457  H   0.84019
 1458  H   0.82845
 1459  H   0.84561
 1460  O   1.85210   1.45297   1.47037   1.77149
 1461  H   0.66540
 1462  C   1.07533   0.76584   0.82455   0.81385
 1463  O   1.88676   1.45239   1.86782   1.32197
 1464  N   1.53706   1.58467   1.12334   1.28795
 1465  H   0.68727
 1466  C   1.05223   1.16011   0.87620   1.13280
 1467  H   0.82186
 1468  H   0.85354
 1469  H   0.86636
 1470  H   0.86943
 1471  C   1.10171   0.76411   0.81172   0.89546
 1472  O   1.88719   1.42754   1.33469   1.87144
 1473  N   1.55040   1.52616   1.36329   1.14166
 1474  H   0.68721
 1475  C   1.07789   1.09038   1.02960   0.79375
 1476  H   0.81266
 1477  C   1.05936   1.13170   1.00686   1.09919
 1478  H   0.81559
 1479  H   0.82661
 1480  C   1.06832   0.97628   0.98738   0.99803
 1481  C   1.08107   0.99048   1.01960   1.00402
 1482  H   0.84556
 1483  C   1.07575   1.10242   1.04747   1.06481
 1484  H   0.82519
 1485  C   1.07249   0.88874   0.88819   0.88302
 1486  O   1.84179   1.33086   1.60068   1.72822
 1487  H   0.65400
 1488  C   1.07528   0.98855   1.10185   1.09831
 1489  H   0.83441
 1490  C   1.08717   1.07425   0.98136   0.97207
 1491  H   0.84072
 1492  C   1.08203   0.80331   0.78087   0.81047
 1493  O   1.89297   1.77885   1.64275   1.23678
 1494  N   1.53511   1.26481   1.54062   1.17729
 1495  H   0.69011
 1496  C   1.05806   0.92152   1.08517   1.15570
 1497  H   0.83226
 1498  H   0.85585
 1499  H   0.85019
 1500  H   0.86599
 1501  C   1.10296   0.82983   0.87806   0.75945
 1502  O   1.89044   1.34342   1.83480   1.42334
 1503  N   1.55423   1.37693   1.20576   1.47149
 1504  H   0.69163
 1505  C   1.07914   0.97658   0.84374   1.12475
 1506  H   0.81503
 1507  C   1.05898   0.98042   1.00865   1.06734
 1508  H   0.86942
 1509  C   1.05192   1.15807   1.05397   1.18188
 1510  H   0.83690
 1511  H   0.85330
 1512  H   0.83578
 1513  C   1.04805   1.00406   1.12226   1.09029
 1514  H   0.86257
 1515  H   0.86415
 1516  C   1.04890   1.11931   1.13522   1.13900
 1517  H   0.85385
 1518  H   0.85527
 1519  H   0.85436
 1520  C   1.07239   0.86791   0.76279   0.76288
 1521  O   1.88566   1.52985   1.48944   1.60551
 1522  N   1.54257   1.16438   1.44803   1.40503
 1523  H   0.70101
 1524  C   1.06816   0.88836   1.14589   1.09858
 1525  H   0.85014
 1526  H   0.86157
 1527  H   0.82825
 1528  H   0.86171
 1529  C   1.10306   0.85218   0.75664   0.84829
 1530  O   1.89242   1.78022   1.57455   1.31036
 1531  N   1.53871   1.27079   1.41802   1.30163
 1532  H   0.68206
 1533  C   1.05775   0.87964   1.04733   1.01912
 1534  H   0.82192
 1535  C   1.06042   1.03592   1.11690   1.10601
 1536  H   0.84148
 1537  H   0.84425
 1538  C   1.04475   0.99090   0.96556   1.05981
 1539  H   0.87914
 1540  C   1.05434   1.16092   1.06593   1.18135
 1541  H   0.84352
 1542  H   0.84610
 1543  H   0.85087
 1544  C   1.05256   1.12483   1.16960   1.11026
 1545  H   0.85982
 1546  H   0.84693
 1547  H   0.84026
 1548  C   1.07999   0.74563   0.87741   0.77791
 1549  O   1.88738   1.52418   1.42222   1.71295
 1550  N   1.54025   1.59583   1.20279   1.20215
 1551  H   0.67700
 1552  C   1.06920   1.04573   0.93873   0.93176
 1553  H   0.81959
 1554  C   1.05602   1.16668   1.05762   1.01479
 1555  H   0.83576
 1556  H   0.83229
 1557  C   1.05724   1.12841   1.10516   1.02214
 1558  H   0.83978
 1559  H   0.82554
 1560  C   1.06736   1.16575   0.93399   0.90761
 1561  H   0.82045
 1562  H   0.83855
 1563  N   1.52348   1.14356   1.42320   1.39815
 1564  H   0.66773
 1565  C   0.99024   0.79785   0.80733   0.81347
 1566  N   1.51437   1.10576   1.46128   1.48332
 1567  H   0.64447
 1568  H   0.65931
 1569  N   1.50488   1.23278   1.41710   1.42988
 1570  H   0.66061
 1571  H   0.65737
 1572  C   1.07520   0.86254   0.78998   0.77498
 1573  O   1.88885   1.59448   1.59536   1.52349
 1574  N   1.53736   1.18903   1.25286   1.49279
 1575  H   0.67793
 1576  C   1.08124   0.82476   1.13559   1.04132
 1577  H   0.82575
 1578  C   1.05988   1.15875   1.08152   0.99992
 1579  H   0.84442
 1580  H   0.84910
 1581  C   1.04878   1.08023   0.97302   0.94576
 1582  H   0.87058
 1583  C   1.05537   1.15848   1.15732   1.09163
 1584  H   0.86873
 1585  H   0.86673
 1586  H   0.85349
 1587  C   1.05674   1.16364   1.09139   1.15437
 1588  H   0.84627
 1589  H   0.87004
 1590  H   0.84065
 1591  C   1.07451   0.75894   0.76278   0.73169
 1592  O   1.88868   1.43262   1.84397   1.57927
 1593  O   1.89198   1.52734   1.54889   1.77916

 **********************
 *                    *
 * JOB ENDED NORMALLY *
 *                    *
 **********************



 TOTAL JOB TIME:          2333.22 SECONDS

 == MOPAC DONE ==
