 *******************************************************************************
 **                                                                           **
 **                              MOPAC v23.2.2                                **
 **                                                                           **
 *******************************************************************************
 **          Digital Object Identifier (DOI): 10.5281/zenodo.6511958          **
 **    Visit the DOI location for information on how to cite this program.    **
 *******************************************************************************

                              PM7 CALCULATION RESULTS

 *******************************************************************************
 *  CALCULATION DONE: (MAX THREADS = 24)             Thu Jan 22 12:47:08 2026  *
 *  PM7        - The PM7 Hamiltonian to be used
 *
 *
 *
 *                 CHARGE ON SYSTEM = +2
 *
 *
 *
 *  EPS=1      - USE ANDREAS KLAMT'S COSMO IMPLICIT SOLVATION MODEL
 *  XYZ        - CARTESIAN COORDINATE SYSTEM TO BE USED
 *  1SCF       - DO 1 SCF AND THEN STOP 
 *  T=         - A TIME OF 172800.0 SECONDS REQUESTED
 *  DUMP=N     - RESTART FILE WRITTEN EVERY 7200.0 SECONDS REQUESTED
 *******************************************************************************
PM7 1SCF XYZ CHARGE=2 EPS=1


   ATOM   CHEMICAL          X               Y               Z
  NUMBER   SYMBOL      (ANGSTROMS)     (ANGSTROMS)     (ANGSTROMS)

     1       H         71.69100000  *  165.23700000  * -45.36000000  *
     2       C         70.72700000  *  165.64400000  * -45.02500000  *
     3       O         70.67100000  *  166.69300000  * -44.40000000  *
     4       N         69.64800000  *  164.94600000  * -45.35400000  *
     5       H         69.74300000  *  164.08600000  * -45.86500000  *
     6       C         68.31800000  *  165.37700000  * -44.95100000  *
     7       H         68.30400000  *  166.44500000  * -44.75000000  *
     8       C         67.27900000  *  165.08100000  * -46.05800000  *
     9       H         67.27200000  *  164.02200000  * -46.29800000  *
    10       C         65.89200000  *  165.46600000  * -45.59200000  *
    11       H         65.46400000  *  166.22900000  * -46.24500000  *
    12       H         65.23700000  *  164.60600000  * -45.62700000  *
    13       H         65.87600000  *  165.89500000  * -44.58400000  *
    14       C         67.63700000  *  165.85600000  * -47.31700000  *
    15       H         68.59400000  *  165.52900000  * -47.70800000  *
    16       H         66.87900000  *  165.66900000  * -48.07700000  *
    17       H         67.68800000  *  166.92100000  * -47.10100000  *
    18       C         67.91500000  *  164.66400000  * -43.65700000  *
    19       O         67.55300000  *  165.30600000  * -42.67600000  *
    20       N         67.98400000  *  163.33800000  * -43.65800000  *
    21       H         68.28400000  *  162.85200000  * -44.48600000  *
    22       C         67.62300000  *  162.54400000  * -42.48700000  *
    23       H         67.90600000  *  163.07600000  * -41.58100000  *
    24       C         66.12800000  *  162.23500000  * -42.45900000  *
    25       H         65.92600000  *  161.47400000  * -43.20900000  *
    26       H         65.88500000  *  161.80700000  * -41.48800000  *
    27       C         65.21300000  *  163.39800000  * -42.74000000  *
    28       H         65.33100000  *  164.15700000  * -41.96400000  *
    29       H         65.45900000  *  163.81400000  * -43.69700000  *
    30       C         63.76600000  *  162.97200000  * -42.82400000  *
    31       O         63.44700000  *  162.11400000  * -43.67900000  *
    32       O         62.94800000  *  163.49400000  * -42.03400000  *
    33       C         68.34700000  *  161.22200000  * -42.57700000  *
    34       O         68.73000000  *  160.78800000  * -43.66100000  *
    35       N         68.52400000  *  160.57500000  * -41.43500000  *
    36       H         68.03000000  *  160.89100000  * -40.60600000  *
    37       C         69.17300000  *  159.28200000  * -41.42100000  *
    38       H         69.95100000  *  159.22100000  * -42.17800000  *
    39       C         69.75600000  *  159.01000000  * -40.03200000  *
    40       H         70.21900000  *  159.94300000  * -39.71800000  *
    41       H         68.96300000  *  158.79100000  * -39.31600000  *
    42       C         70.79800000  *  157.89600000  * -39.98300000  *
    43       H         70.31100000  *  156.94100000  * -40.17400000  *
    44       H         71.53800000  *  158.07300000  * -40.76900000  *
    45       C         71.50100000  *  157.83200000  * -38.61800000  *
    46       H         70.74900000  *  157.59000000  * -37.86000000  *
    47       H         72.23100000  *  157.01800000  * -38.63800000  *
    48       C         72.18600000  *  159.16200000  * -38.26900000  *
    49       H         72.83200000  *  159.42500000  * -39.10900000  *
    50       H         71.41200000  *  159.93100000  * -38.15600000  *
    51       N         73.00000000  *  159.10500000  * -37.02500000  *
    52       H         73.70000000  *  158.37000000  * -37.07400000  *
    53       H         73.43800000  *  159.98800000  * -36.79300000  *
    54       H         72.39100000  *  158.85400000  * -36.25100000  *
    55       C         68.06200000  *  158.28700000  * -41.74800000  *
    56       O         67.16300000  *  158.08100000  * -40.94600000  *
    57       N         68.04100000  *  157.74300000  * -42.97000000  *
    58       H         68.83500000  *  157.91300000  * -43.56700000  *
    59       C         67.06500000  *  156.71200000  * -43.39100000  *
    60       H         66.06600000  *  157.15100000  * -43.37500000  *
    61       C         67.34700000  *  156.20900000  * -44.82500000  *
    62       H         68.42300000  *  156.09400000  * -44.95300000  *
    63       C         66.69000000  *  154.85600000  * -45.12500000  *
    64       H         65.61100000  *  154.91400000  * -44.98000000  *
    65       H         66.89800000  *  154.58500000  * -46.15200000  *
    66       H         67.10200000  *  154.06800000  * -44.49600000  *
    67       C         66.83500000  *  157.25100000  * -45.83200000  *
    68       H         65.74400000  *  157.26400000  * -45.82500000  *
    69       H         67.17500000  *  158.22300000  * -45.49500000  *
    70       C         67.32400000  *  157.03700000  * -47.27200000  *
    71       H         66.86600000  *  156.15200000  * -47.70900000  *
    72       H         67.04700000  *  157.89800000  * -47.87800000  *
    73       H         68.40600000  *  156.93200000  * -47.28900000  *
    74       C         67.05500000  *  155.56600000  * -42.38200000  *
    75       O         65.99300000  *  155.14600000  * -41.91700000  *
    76       N         68.24900000  *  155.10100000  * -42.01400000  *
    77       H         69.08300000  *  155.48100000  * -42.44800000  *
    78       C         68.41600000  *  154.15100000  * -40.93200000  *
    79       H         68.37000000  *  154.68500000  * -39.98200000  *
    80       H         67.60000000  *  153.42700000  * -40.95600000  *
    81       C         69.73400000  *  153.39900000  * -40.98500000  *
    82       O         70.75100000  *  153.86200000  * -41.50800000  *
    83       N         69.69800000  *  152.23600000  * -40.35300000  *
    84       H         68.80800000  *  151.92800000  * -39.99000000  *
    85       C         70.87100000  *  151.53300000  * -39.86200000  *
    86       H         71.75400000  *  152.16300000  * -39.97500000  *
    87       C         70.66400000  *  151.27300000  * -38.36300000  *
    88       H         69.84700000  *  150.56400000  * -38.22300000  *
    89       H         71.58600000  *  150.84300000  * -38.00000000  *
    90       C         70.37600000  *  152.55000000  * -37.54800000  *
    91       H         71.20100000  *  153.25200000  * -37.68900000  *
    92       H         69.47200000  *  153.03500000  * -37.92200000  *
    93       C         70.17600000  *  152.26600000  * -36.05100000  *
    94       O         69.21600000  *  151.55000000  * -35.68600000  *
    95       O         70.92700000  *  152.83400000  * -35.22400000  *
    96       C         71.08500000  *  150.25600000  * -40.68600000  *
    97       O         70.37100000  *  149.26300000  * -40.52400000  *
    98       N         71.99200000  *  150.32400000  * -41.66300000  *
    99       H         72.61000000  *  151.12800000  * -41.70600000  *
   100       C         72.14400000  *  149.31000000  * -42.70800000  *
   101       H         71.15700000  *  148.97400000  * -43.02900000  *
   102       H         72.63100000  *  149.77600000  * -43.56400000  *
   103       C         72.96200000  *  148.07800000  * -42.30800000  *
   104       O         73.47700000  *  147.95500000  * -41.19800000  *
   105       N         73.13700000  *  147.17600000  * -43.27400000  *
   106       H         72.67000000  *  147.32600000  * -44.16000000  *
   107       C         73.96900000  *  145.95700000  * -43.18400000  *
   108       H         73.69200000  *  145.39800000  * -42.29000000  *
   109       C         73.71600000  *  145.06400000  * -44.41100000  *
   110       H         74.47100000  *  144.27900000  * -44.46400000  *
   111       C         72.34100000  *  144.41000000  * -44.35200000  *
   112       H         71.55500000  *  145.16700000  * -44.37000000  *
   113       H         72.22600000  *  143.74500000  * -45.20800000  *
   114       H         72.26900000  *  143.81500000  * -43.44300000  *
   115       O         73.78200000  *  145.86000000  * -45.56800000  *
   116       H         73.26400000  *  145.42300000  * -46.28200000  *
   117       C         75.47500000  *  146.22700000  * -43.09900000  *
   118       O         76.18900000  *  145.40600000  * -42.52800000  *
   119       N         75.94600000  *  147.36700000  * -43.62600000  *
   120       H         75.28000000  *  147.92400000  * -44.13600000  *
   121       C         77.37200000  *  147.72800000  * -43.74700000  *
   122       H         77.97000000  *  147.06900000  * -43.11600000  *
   123       C         77.82000000  *  147.52600000  * -45.20700000  *
   124       H         77.22800000  *  148.17800000  * -45.85000000  *
   125       H         78.86400000  *  147.82400000  * -45.30700000  *
   126       C         77.72300000  *  146.10800000  * -45.71000000  *
   127       C         78.65400000  *  145.15600000  * -45.25900000  *
   128       H         79.44700000  *  145.44800000  * -44.58100000  *
   129       C         78.54000000  *  143.82000000  * -45.67200000  *
   130       H         79.25000000  *  143.09500000  * -45.30800000  *
   131       C         77.49100000  *  143.43700000  * -46.53500000  *
   132       O         77.33700000  *  142.13700000  * -46.87900000  *
   133       H         77.80700000  *  141.57200000  * -46.23600000  *
   134       C         76.57800000  *  144.39800000  * -47.01200000  *
   135       H         75.76700000  *  144.10200000  * -47.65800000  *
   136       C         76.70400000  *  145.73700000  * -46.60600000  *
   137       H         75.99200000  *  146.47100000  * -46.95400000  *
   138       C         77.71600000  *  149.16900000  * -43.32600000  *
   139       O         78.85700000  *  149.58700000  * -43.50600000  *
   140       N         76.77100000  *  149.95000000  * -42.79500000  *
   141       H         75.86100000  *  149.56500000  * -42.58900000  *
   142       C         76.98700000  *  151.36600000  * -42.47400000  *
   143       H         77.53700000  *  151.44700000  * -41.53900000  *
   144       H         77.59800000  *  151.81500000  * -43.24800000  *
   145       C         75.68700000  *  152.16100000  * -42.34200000  *
   146       O         74.62200000  *  151.57000000  * -42.14400000  *
   147       N         75.75500000  *  153.49500000  * -42.44900000  *
   148       H         76.58800000  *  153.89400000  * -42.85900000  *
   149       C         74.59200000  *  154.32600000  * -42.21200000  *
   150       H         73.82600000  *  153.78000000  * -41.65800000  *
   151       C         74.95900000  *  155.54800000  * -41.37000000  *
   152       H         75.70700000  *  156.13900000  * -41.89300000  *
   153       C         73.73100000  *  156.40900000  * -41.13300000  *
   154       H         72.94300000  *  155.80300000  * -40.68200000  *
   155       H         73.98600000  *  157.21200000  * -40.45000000  *
   156       H         73.36800000  *  156.84900000  * -42.06500000  *
   157       C         75.54500000  *  155.09600000  * -40.05300000  *
   158       H         76.46000000  *  154.52800000  * -40.19800000  *
   159       H         75.77700000  *  155.95300000  * -39.42300000  *
   160       H         74.80500000  *  154.48400000  * -39.53200000  *
   161       C         74.01900000  *  154.79200000  * -43.53700000  *
   162       O         74.76100000  *  155.18400000  * -44.43700000  *
   163       N         72.69900000  *  154.66500000  * -43.67700000  *
   164       H         72.14800000  *  154.34100000  * -42.88600000  *
   165       C         71.97500000  *  155.13700000  * -44.85600000  *
   166       H         72.69400000  *  155.26800000  * -45.65900000  *
   167       C         70.91800000  *  154.14100000  * -45.36300000  *
   168       H         70.01700000  *  154.20200000  * -44.75200000  *
   169       C         70.56500000  *  154.51400000  * -46.81100000  *
   170       H         71.45500000  *  154.48800000  * -47.43900000  *
   171       H         69.83500000  *  153.81800000  * -47.21600000  *
   172       H         70.14000000  *  155.51400000  * -46.85000000  *
   173       C         71.44100000  *  152.70100000  * -45.30400000  *
   174       H         72.47000000  *  152.67500000  * -45.65000000  *
   175       H         71.40100000  *  152.34300000  * -44.27400000  *
   176       H         70.82800000  *  152.04700000  * -45.92100000  *
   177       C         71.35000000  *  156.48500000  * -44.54800000  *
   178       O         70.59500000  *  156.60800000  * -43.57900000  *
   179       N         71.62500000  *  157.49000000  * -45.37400000  *
   180       H         72.23900000  *  157.32200000  * -46.16900000  *
   181       C         71.01800000  *  158.79600000  * -45.21900000  *
   182       H         70.37900000  *  158.84300000  * -44.33800000  *
   183       C         72.10000000  *  159.86100000  * -45.06900000  *
   184       H         72.79900000  *  159.78100000  * -45.90500000  *
   185       H         71.63400000  *  160.84400000  * -45.14300000  *
   186       C         72.87100000  *  159.84300000  * -43.76800000  *
   187       C         72.34700000  *  160.43100000  * -42.61900000  *
   188       H         71.37700000  *  160.90600000  * -42.66800000  *
   189       C         73.06400000  *  160.45200000  * -41.42500000  *
   190       H         72.63300000  *  160.94600000  * -40.56800000  *
   191       C         74.33000000  *  159.87400000  * -41.37100000  *
   192       O         75.04700000  *  159.90100000  * -40.18700000  *
   193       H         74.69700000  *  160.54100000  * -39.56800000  *
   194       C         74.87500000  *  159.27800000  * -42.50300000  *
   195       H         75.78500000  *  158.71900000  * -42.41900000  *
   196       C         74.14000000  *  159.26700000  * -43.69600000  *
   197       H         74.51800000  *  158.73300000  * -44.56500000  *
   198       C         70.16700000  *  159.17400000  * -46.42900000  *
   199       O         70.41800000  *  158.72400000  * -47.55600000  *
   200       N         69.03200000  *  159.83700000  * -46.21300000  *
   201       H         68.84400000  *  160.14400000  * -45.26500000  *
   202       C         68.29400000  *  160.51000000  * -47.28200000  *
   203       H         68.28600000  *  159.90700000  * -48.19200000  *
   204       C         66.84800000  *  160.82800000  * -46.84700000  *
   205       H         66.33600000  *  159.90500000  * -46.58700000  *
   206       H         66.86500000  *  161.46700000  * -45.96200000  *
   207       C         66.03400000  *  161.51200000  * -47.95700000  *
   208       H         66.51100000  *  162.45100000  * -48.24100000  *
   209       H         65.99600000  *  160.85700000  * -48.82800000  *
   210       C         64.60500000  *  161.80200000  * -47.47000000  *
   211       H         64.13700000  *  160.87000000  * -47.14800000  *
   212       H         64.65000000  *  162.48400000  * -46.61900000  *
   213       C         63.76600000  *  162.43000000  * -48.59200000  *
   214       H         64.29900000  *  163.30300000  * -48.98200000  *
   215       H         63.67300000  *  161.70000000  * -49.40400000  *
   216       N         62.41800000  *  162.83600000  * -48.11300000  *
   217       H         62.48000000  *  163.53200000  * -47.38300000  *
   218       H         61.86900000  *  163.24000000  * -48.86000000  *
   219       H         61.90100000  *  162.05100000  * -47.74200000  *
   220       C         69.09600000  *  161.76800000  * -47.51100000  *
   221       O         69.32200000  *  162.50400000  * -46.55400000  *
   222       N         69.55500000  *  162.00600000  * -48.72500000  *
   223       H         69.34400000  *  161.34200000  * -49.46700000  *
   224       C         70.34900000  *  163.18200000  * -49.01700000  *
   225       H         70.22500000  *  163.93500000  * -48.24000000  *
   226       C         71.81400000  *  162.79200000  * -49.07000000  *
   227       H         71.97800000  *  162.06700000  * -49.86400000  *
   228       H         72.42900000  *  163.67700000  * -49.23900000  *
   229       H         72.10500000  *  162.33200000  * -48.12600000  *
   230       C         69.94400000  *  163.83800000  * -50.32200000  *
   231       O         69.22100000  *  163.25100000  * -51.12800000  *
   232       N         70.40700000  *  165.06400000  * -50.52400000  *
   233       H         70.93200000  *  165.53000000  * -49.79600000  *
   234       C         70.10800000  *  165.77900000  * -51.74600000  *
   235       H         69.54100000  *  165.15900000  * -52.44400000  *
   236       H         69.52200000  *  166.69100000  * -51.53000000  *
   237       H         71.05900000  *  166.04700000  * -52.23900000  *
   238       H         68.08600000  *  164.80700000  * -56.55000000  *
   239       C         68.21200000  *  164.39600000  * -55.53600000  *
   240       O         69.28600000  *  164.50800000  * -54.94200000  *
   241       N         67.13500000  *  163.82300000  * -55.01100000  *
   242       H         66.34000000  *  163.66800000  * -55.61500000  *
   243       C         67.13600000  *  163.21200000  * -53.68800000  *
   244       H         67.86300000  *  163.70700000  * -53.05000000  *
   245       C         65.75500000  *  163.32300000  * -53.02900000  *
   246       H         64.97700000  *  163.06900000  * -53.75000000  *
   247       C         65.64800000  *  162.36600000  * -51.85200000  *
   248       H         66.47200000  *  162.51800000  * -51.15200000  *
   249       H         64.69700000  *  162.53800000  * -51.34700000  *
   250       H         65.65200000  *  161.33900000  * -52.20000000  *
   251       C         65.54000000  *  164.75000000  * -52.56600000  *
   252       H         65.62600000  *  165.42400000  * -53.41600000  *
   253       H         64.53500000  *  164.85100000  * -52.15900000  *
   254       H         66.28400000  *  165.00300000  * -51.81000000  *
   255       C         67.52600000  *  161.76000000  * -53.84700000  *
   256       O         66.97900000  *  161.02800000  * -54.68200000  *
   257       N         68.49600000  *  161.34900000  * -53.04800000  *
   258       H         68.91100000  *  161.99700000  * -52.39100000  *
   259       C         69.01100000  *  159.99200000  * -53.10200000  *
   260       H         68.34600000  *  159.34100000  * -53.67900000  *
   261       C         70.37400000  *  159.97400000  * -53.81600000  *
   262       H         70.77500000  *  158.96500000  * -53.87500000  *
   263       C         70.21400000  *  160.50700000  * -55.21300000  *
   264       H         69.95700000  *  161.56600000  * -55.19000000  *
   265       H         71.15100000  *  160.39100000  * -55.75600000  *
   266       H         69.44200000  *  159.95000000  * -55.73600000  *
   267       C         71.37900000  *  160.85000000  * -53.05700000  *
   268       H         71.56500000  *  160.44500000  * -52.06400000  *
   269       H         72.31500000  *  160.84900000  * -53.61300000  *
   270       H         71.03600000  *  161.88400000  * -52.98400000  *
   271       C         69.19200000  *  159.37200000  * -51.72900000  *
   272       O         69.02000000  *  160.03600000  * -50.68600000  *
   273       N         69.38700000  *  158.06000000  * -51.70900000  *
   274       H         69.46900000  *  157.57000000  * -52.59500000  *
   275       C         69.76000000  *  157.31900000  * -50.52000000  *
   276       H         69.47300000  *  157.87400000  * -49.62800000  *
   277       C         69.00800000  *  155.99600000  * -50.50400000  *
   278       H         69.23800000  *  155.44200000  * -51.41200000  *
   279       H         69.30600000  *  155.41100000  * -49.63300000  *
   280       H         67.93600000  *  156.19000000  * -50.45600000  *
   281       C         71.27900000  *  157.14300000  * -50.54200000  *
   282       O         71.81600000  *  156.46900000  * -51.42600000  *
   283       N         71.97000000  *  157.79100000  * -49.60300000  *
   284       H         71.44500000  *  158.28300000  * -48.88900000  *
   285       C         73.41300000  *  157.73400000  * -49.53500000  *
   286       H         73.80300000  *  157.43200000  * -50.50200000  *
   287       C         73.96100000  *  159.11400000  * -49.18200000  *
   288       H         73.49200000  *  159.84000000  * -49.85100000  *
   289       H         73.62800000  *  159.35800000  * -48.16900000  *
   290       C         75.47300000  *  159.31600000  * -49.26600000  *
   291       H         75.96900000  *  158.63700000  * -48.57100000  *
   292       C         75.94900000  *  159.02000000  * -50.68400000  *
   293       H         75.44100000  *  159.71800000  * -51.34800000  *
   294       H         77.02400000  *  159.18800000  * -50.76300000  *
   295       H         75.74700000  *  157.98700000  * -50.96800000  *
   296       C         75.80400000  *  160.74000000  * -48.87900000  *
   297       H         75.43700000  *  160.94600000  * -47.87600000  *
   298       H         76.88200000  *  160.87900000  * -48.92200000  *
   299       H         75.32000000  *  161.42900000  * -49.57600000  *
   300       C         73.82100000  *  156.71600000  * -48.48500000  *
   301       O         73.39600000  *  156.78100000  * -47.33400000  *
   302       N         74.63900000  *  155.74700000  * -48.89000000  *
   303       H         74.87500000  *  155.73100000  * -49.88000000  *
   304       C         75.13800000  *  154.63100000  * -48.07500000  *
   305       H         74.61100000  *  154.58900000  * -47.12000000  *
   306       C         74.89100000  *  153.32800000  * -48.87400000  *
   307       H         74.44000000  *  153.58000000  * -49.83500000  *
   308       H         75.83500000  *  152.82800000  * -49.09000000  *
   309       C         73.95100000  *  152.30900000  * -48.23200000  *
   310       H         73.07400000  *  152.82000000  * -47.83700000  *
   311       H         73.61600000  *  151.64700000  * -49.03000000  *
   312       C         74.63800000  *  151.47600000  * -47.13500000  *
   313       H         75.60400000  *  151.11700000  * -47.49400000  *
   314       H         74.82100000  *  152.11200000  * -46.26600000  *
   315       C         73.78200000  *  150.26800000  * -46.71200000  *
   316       H         74.26700000  *  149.79100000  * -45.85400000  *
   317       H         72.80300000  *  150.62900000  * -46.37800000  *
   318       N         73.61500000  *  149.28200000  * -47.81800000  *
   319       H         74.50200000  *  148.92000000  * -48.14500000  *
   320       H         73.04400000  *  148.47500000  * -47.53300000  *
   321       H         73.13100000  *  149.69400000  * -48.60600000  *
   322       C         76.62600000  *  154.85700000  * -47.80100000  *
   323       O         77.42200000  *  154.70600000  * -48.71900000  *
   324       N         77.01700000  *  155.22600000  * -46.58100000  *
   325       H         76.29800000  *  155.26800000  * -45.86500000  *
   326       C         78.42200000  *  155.28900000  * -46.15900000  *
   327       H         79.06600000  *  155.59300000  * -46.98900000  *
   328       C         78.56700000  *  156.26000000  * -44.97900000  *
   329       H         78.02700000  *  155.87500000  * -44.10900000  *
   330       H         79.62500000  *  156.33900000  * -44.73000000  *
   331       C         78.01500000  *  157.64300000  * -45.34000000  *
   332       H         78.45100000  *  157.95800000  * -46.27300000  *
   333       H         76.93600000  *  157.57500000  * -45.50000000  *
   334       C         78.25100000  *  158.72500000  * -44.27900000  *
   335       H         77.97800000  *  159.68000000  * -44.73200000  *
   336       H         77.56000000  *  158.53300000  * -43.46900000  *
   337       C         79.67700000  *  158.85000000  * -43.70900000  *
   338       H         80.38400000  *  158.36300000  * -44.39700000  *
   339       H         79.95000000  *  159.91100000  * -43.68600000  *
   340       N         79.78800000  *  158.26900000  * -42.33500000  *
   341       H         79.63700000  *  157.26100000  * -42.37000000  *
   342       H         80.69600000  *  158.42600000  * -41.93200000  *
   343       H         79.10400000  *  158.64600000  * -41.70100000  *
   344       C         78.82300000  *  153.89100000  * -45.72900000  *
   345       O         78.09100000  *  153.31500000  * -44.93700000  *
   346       N         79.90700000  *  153.32000000  * -46.24700000  *
   347       H         80.40500000  *  153.76400000  * -47.01000000  *
   348       C         80.34300000  *  152.02200000  * -45.76800000  *
   349       H         79.49500000  *  151.49800000  * -45.35900000  *
   350       C         80.94400000  *  151.18600000  * -46.89500000  *
   351       H         81.78600000  *  151.78200000  * -47.16900000  *
   352       C         81.42400000  *  149.85200000  * -46.34500000  *
   353       H         80.65600000  *  149.35200000  * -45.75200000  *
   354       H         81.67900000  *  149.19900000  * -47.17900000  *
   355       H         82.34500000  *  149.95700000  * -45.76100000  *
   356       C         79.89700000  *  150.97600000  * -47.99700000  *
   357       H         79.60200000  *  151.87000000  * -48.50000000  *
   358       H         80.28300000  *  150.30500000  * -48.75000000  *
   359       C         78.59100000  *  150.36100000  * -47.52600000  *
   360       H         78.17700000  *  150.90100000  * -46.69000000  *
   361       H         77.89400000  *  150.33700000  * -48.36300000  *
   362       H         78.77100000  *  149.33300000  * -47.20900000  *
   363       C         81.33300000  *  152.07100000  * -44.61400000  *
   364       O         82.16700000  *  152.98000000  * -44.51900000  *
   365       N         81.21100000  *  151.07100000  * -43.74300000  *
   366       H         80.50300000  *  150.36100000  * -43.92800000  *
   367       C         82.04400000  *  150.90200000  * -42.55200000  *
   368       H         81.47500000  *  151.18100000  * -41.66300000  *
   369       H         82.35800000  *  149.86100000  * -42.45900000  *
   370       H         82.94700000  *  151.51400000  * -42.62000000  *
   371       H         81.25700000  *  144.04600000  * -57.89900000  *
   372       C         80.50000000  *  144.84100000  * -57.88800000  *
   373       O         79.71500000  *  144.99000000  * -58.82400000  *
   374       N         80.49900000  *  145.60300000  * -56.79700000  *
   375       H         81.28000000  *  145.52500000  * -56.16600000  *
   376       C         79.57000000  *  146.70600000  * -56.61200000  *
   377       H         78.57500000  *  146.34400000  * -56.42300000  *
   378       C         80.00500000  *  147.61000000  * -55.44200000  *
   379       H         80.89800000  *  148.18000000  * -55.68500000  *
   380       C         78.90600000  *  148.60800000  * -55.12500000  *
   381       H         77.92000000  *  148.14100000  * -55.17600000  *
   382       H         79.04500000  *  148.98700000  * -54.11600000  *
   383       H         78.93800000  *  149.43600000  * -55.83300000  *
   384       C         80.32100000  *  146.76200000  * -54.20900000  *
   385       H         81.19200000  *  146.13400000  * -54.40600000  *
   386       H         80.59400000  *  147.42200000  * -53.38900000  *
   387       C         79.18400000  *  145.87900000  * -53.76500000  *
   388       H         78.77800000  *  145.31100000  * -54.59400000  *
   389       H         79.50900000  *  145.12200000  * -53.06500000  *
   390       H         78.38800000  *  146.48300000  * -53.33500000  *
   391       C         79.54300000  *  147.54500000  * -57.87900000  *
   392       O         78.48200000  *  147.77900000  * -58.45100000  *
   393       N         80.72300000  *  147.98900000  * -58.30900000  *
   394       H         81.55800000  *  147.70100000  * -57.81200000  *
   395       C         80.85900000  *  148.80400000  * -59.51100000  *
   396       H         80.33900000  *  149.74600000  * -59.38600000  *
   397       H         81.92800000  *  148.98500000  * -59.72900000  *
   398       H         80.37800000  *  148.32200000  * -60.38100000  *
   399       H         78.96400000  *  146.08700000  * -61.65600000  *
   400       C         77.87300000  *  146.08700000  * -61.51600000  *
   401       O         77.11500000  *  145.89500000  * -62.46400000  *
   402       N         77.44600000  *  146.31800000  * -60.28000000  *
   403       H         78.13400000  *  146.42500000  * -59.54900000  *
   404       C         76.02800000  *  146.35200000  * -59.94500000  *
   405       H         75.53300000  *  145.47600000  * -60.35900000  *
   406       C         75.84100000  *  146.37400000  * -58.43100000  *
   407       H         76.20500000  *  147.30400000  * -58.01800000  *
   408       H         74.76300000  *  146.35700000  * -58.24200000  *
   409       C         76.47200000  *  145.22200000  * -57.65900000  *
   410       H         77.55000000  *  145.23900000  * -57.74900000  *
   411       C         76.08000000  *  145.34100000  * -56.19200000  *
   412       H         74.99900000  *  145.23000000  * -56.07700000  *
   413       H         76.57300000  *  144.55300000  * -55.62900000  *
   414       H         76.38500000  *  146.30900000  * -55.80100000  *
   415       C         75.99600000  *  143.89000000  * -58.23600000  *
   416       H         76.41500000  *  143.73000000  * -59.22900000  *
   417       H         76.32800000  *  143.07800000  * -57.59100000  *
   418       H         74.90500000  *  143.87400000  * -58.30500000  *
   419       C         75.32200000  *  147.55900000  * -60.54800000  *
   420       O         74.09500000  *  147.56800000  * -60.66200000  *
   421       N         76.08400000  *  148.63100000  * -60.82900000  *
   422       H         77.08200000  *  148.53500000  * -60.67700000  *
   423       C         75.60100000  *  149.83300000  * -61.53400000  *
   424       H         74.83700000  *  150.33500000  * -60.94100000  *
   425       H         76.43800000  *  150.53300000  * -61.75900000  *
   426       H         75.13800000  *  149.54900000  * -62.49200000  *
   427       H         62.79000000  *  145.77200000  * -59.27600000  *
   428       C         63.71000000  *  145.72000000  * -58.67500000  *
   429       O         63.77900000  *  145.02200000  * -57.66400000  *
   430       N         64.72400000  *  146.45200000  * -59.11400000  *
   431       H         64.63800000  *  147.05100000  * -59.92700000  *
   432       C         65.97100000  *  146.53500000  * -58.38100000  *
   433       H         65.88400000  *  146.09200000  * -57.38600000  *
   434       C         67.11600000  *  145.87700000  * -59.11400000  *
   435       H         67.33600000  *  146.42600000  * -60.03000000  *
   436       C         68.35100000  *  145.87800000  * -58.21400000  *
   437       H         68.14700000  *  145.31400000  * -57.31800000  *
   438       H         69.21000000  *  145.44500000  * -58.72400000  *
   439       H         68.64100000  *  146.89000000  * -57.94500000  *
   440       C         66.72800000  *  144.44400000  * -59.47800000  *
   441       H         66.54900000  *  143.87300000  * -58.56400000  *
   442       H         65.81500000  *  144.42400000  * -60.06800000  *
   443       C         67.77400000  *  143.72700000  * -60.29600000  *
   444       H         68.68300000  *  143.57700000  * -59.72200000  *
   445       H         67.37700000  *  142.75300000  * -60.59800000  *
   446       H         68.02300000  *  144.31300000  * -61.18000000  *
   447       C         66.29500000  *  148.01000000  * -58.22000000  *
   448       O         66.21200000  *  148.78000000  * -59.18400000  *
   449       N         66.56200000  *  148.43400000  * -56.98300000  *
   450       H         66.63000000  *  147.74800000  * -56.23600000  *
   451       C         66.90300000  *  149.82700000  * -56.67200000  *
   452       H         66.08300000  *  150.47200000  * -56.98200000  *
   453       C         67.11800000  *  150.00700000  * -55.16300000  *
   454       H         67.90900000  *  149.33400000  * -54.82900000  *
   455       C         67.50000000  *  151.43900000  * -54.77500000  *
   456       H         66.66800000  *  152.11500000  * -54.96600000  *
   457       H         67.74500000  *  151.47400000  * -53.71400000  *
   458       H         68.36600000  *  151.77500000  * -55.34100000  *
   459       C         65.83400000  *  149.67600000  * -54.40100000  *
   460       H         65.53000000  *  148.64700000  * -54.56800000  *
   461       H         66.03000000  *  149.79900000  * -53.34600000  *
   462       H         65.03000000  *  150.34100000  * -54.71100000  *
   463       C         68.15700000  *  150.21600000  * -57.45000000  *
   464       O         69.18900000  *  149.55000000  * -57.33100000  *
   465       N         68.08000000  *  151.28300000  * -58.25100000  *
   466       H         67.22500000  *  151.80400000  * -58.24500000  *
   467       C         69.18900000  *  151.69800000  * -59.08000000  *
   468       H         69.52500000  *  150.81900000  * -59.63900000  *
   469       C         68.73700000  *  152.76800000  * -60.08300000  *
   470       H         67.83400000  *  152.41100000  * -60.57900000  *
   471       H         68.47700000  *  153.68100000  * -59.53700000  *
   472       C         69.79100000  *  153.06900000  * -61.13100000  *
   473       H         70.72100000  *  153.35000000  * -60.64200000  *
   474       H         69.97400000  *  152.16800000  * -61.71600000  *
   475       C         69.35100000  *  154.17900000  * -62.08100000  *
   476       H         68.50200000  *  153.81400000  * -62.66100000  *
   477       H         69.02300000  *  155.05600000  * -61.52200000  *
   478       C         70.49800000  *  154.55900000  * -63.02400000  *
   479       H         71.33900000  *  154.89000000  * -62.40800000  *
   480       H         70.81900000  *  153.66100000  * -63.56600000  *
   481       N         70.11800000  *  155.62600000  * -63.99700000  *
   482       H         69.74700000  *  156.41600000  * -63.48300000  *
   483       H         70.92600000  *  155.93300000  * -64.52500000  *
   484       H         69.41500000  *  155.27800000  * -64.63600000  *
   485       C         70.36000000  *  152.21400000  * -58.25300000  *
   486       O         70.19400000  *  153.07400000  * -57.38700000  *
   487       N         71.53700000  *  151.64500000  * -58.50700000  *
   488       H         71.59600000  *  150.90400000  * -59.18600000  *
   489       C         72.75000000  *  152.07400000  * -57.83600000  *
   490       H         72.53800000  *  152.52600000  * -56.87100000  *
   491       C         73.72700000  *  150.91100000  * -57.67000000  *
   492       H         73.31500000  *  150.22100000  * -56.93700000  *
   493       H         73.77900000  *  150.36900000  * -58.62000000  *
   494       C         75.16700000  *  151.27300000  * -57.28800000  *
   495       H         75.65500000  *  151.80300000  * -58.10000000  *
   496       C         75.18300000  *  152.16500000  * -56.05900000  *
   497       H         74.60800000  *  151.72100000  * -55.25200000  *
   498       H         76.21000000  *  152.29600000  * -55.73500000  *
   499       H         74.78900000  *  153.14000000  * -56.31200000  *
   500       C         75.93300000  *  149.99400000  * -57.01300000  *
   501       H         75.98300000  *  149.42100000  * -57.93300000  *
   502       H         76.94600000  *  150.24200000  * -56.71200000  *
   503       H         75.43500000  *  149.41000000  * -56.23200000  *
   504       C         73.31900000  *  153.11300000  * -58.79500000  *
   505       O         73.76900000  *  152.77900000  * -59.89700000  *
   506       N         73.26700000  *  154.36900000  * -58.37800000  *
   507       H         72.92600000  *  154.57000000  * -57.44900000  *
   508       C         73.73400000  *  155.46600000  * -59.19700000  *
   509       H         73.47500000  *  155.26500000  * -60.23600000  *
   510       C         73.02500000  *  156.74200000  * -58.76000000  *
   511       H         73.45000000  *  157.06300000  * -57.80900000  *
   512       H         73.23600000  *  157.53300000  * -59.48700000  *
   513       C         71.51300000  *  156.60300000  * -58.58700000  *
   514       H         71.27400000  *  155.80900000  * -57.88500000  *
   515       C         70.97400000  *  157.88000000  * -58.01900000  *
   516       H         71.37000000  *  158.74600000  * -58.56000000  *
   517       H         69.88800000  *  157.89100000  * -58.09300000  *
   518       H         71.22100000  *  157.96000000  * -56.96600000  *
   519       C         70.85100000  *  156.29000000  * -59.92300000  *
   520       H         71.28300000  *  155.39700000  * -60.34200000  *
   521       H         69.78900000  *  156.14400000  * -59.75100000  *
   522       H         71.00300000  *  157.12700000  * -60.60700000  *
   523       C         75.24500000  *  155.67800000  * -59.15800000  *
   524       O         75.83900000  *  156.04700000  * -60.17600000  *
   525       N         75.86200000  *  155.44600000  * -57.99600000  *
   526       H         75.29500000  *  155.17900000  * -57.20400000  *
   527       C         77.30800000  *  155.64700000  * -57.82900000  *
   528       H         77.80800000  *  155.40400000  * -58.76600000  *
   529       C         77.60000000  *  157.11700000  * -57.51900000  *
   530       H         76.91700000  *  157.54400000  * -56.80300000  *
   531       H         78.58200000  *  157.17000000  * -57.04800000  *
   532       C         77.65600000  *  157.97500000  * -58.75600000  *
   533       O         78.67800000  *  157.91700000  * -59.48300000  *
   534       O         76.67400000  *  158.70400000  * -59.00000000  *
   535       C         77.97900000  *  154.81700000  * -56.73400000  *
   536       O         77.37100000  *  154.52100000  * -55.70400000  *
   537       N         79.24700000  *  154.47700000  * -56.96600000  *
   538       H         79.69800000  *  154.82400000  * -57.79800000  *
   539       C         80.06100000  *  153.73800000  * -56.00300000  *
   540       H         79.55400000  *  153.69900000  * -55.05200000  *
   541       C         80.36600000  *  152.29800000  * -56.50400000  *
   542       H         79.42700000  *  151.75200000  * -56.56200000  *
   543       C         80.98100000  *  152.34300000  * -57.88400000  *
   544       H         82.06600000  *  152.43300000  * -57.82100000  *
   545       H         80.74600000  *  151.41400000  * -58.37900000  *
   546       H         80.59600000  *  153.14500000  * -58.51000000  *
   547       C         81.29900000  *  151.58800000  * -55.53900000  *
   548       H         80.81100000  *  151.54900000  * -54.57200000  *
   549       H         81.47300000  *  150.57200000  * -55.87800000  *
   550       H         82.25900000  *  152.09200000  * -55.44900000  *
   551       C         81.36500000  *  154.53600000  * -55.81000000  *
   552       O         82.27000000  *  154.48900000  * -56.64700000  *
   553       N         81.45200000  *  155.28200000  * -54.71000000  *
   554       H         80.67600000  *  155.30400000  * -54.06400000  *
   555       C         82.62100000  *  156.11100000  * -54.44300000  *
   556       H         83.20500000  *  156.21800000  * -55.35800000  *
   557       H         82.32200000  *  157.12800000  * -54.14500000  *
   558       H         83.29700000  *  155.73900000  * -53.65600000  *
   559       H         84.58000000  *  155.17100000  * -47.07300000  *
   560       C         84.22500000  *  154.98400000  * -48.09100000  *
   561       O         84.63900000  *  155.65900000  * -49.04200000  *
   562       N         83.35800000  *  153.99100000  * -48.22200000  *
   563       H         83.13600000  *  153.42800000  * -47.41700000  *
   564       C         82.77600000  *  153.65100000  * -49.50600000  *
   565       H         83.37000000  *  154.04700000  * -50.31700000  *
   566       C         82.71900000  *  152.14000000  * -49.66000000  *
   567       H         83.74000000  *  151.87500000  * -49.95700000  *
   568       H         82.64400000  *  151.54600000  * -48.78400000  *
   569       C         81.82600000  *  151.61900000  * -50.77900000  *
   570       H         80.79100000  *  151.88400000  * -50.58700000  *
   571       C         82.25800000  *  152.23100000  * -52.09200000  *
   572       H         83.31100000  *  152.49100000  * -52.08900000  *
   573       H         82.09300000  *  151.51300000  * -52.88400000  *
   574       H         81.65400000  *  153.10900000  * -52.31200000  *
   575       C         81.89900000  *  150.09400000  * -50.82200000  *
   576       H         81.91300000  *  149.66400000  * -49.82700000  *
   577       H         81.05200000  *  149.70600000  * -51.39100000  *
   578       H         82.82500000  *  149.80300000  * -51.32100000  *
   579       C         81.36700000  *  154.23200000  * -49.54800000  *
   580       O         80.51800000  *  153.85700000  * -48.74500000  *
   581       N         81.13100000  *  155.16100000  * -50.46700000  *
   582       H         81.84500000  *  155.34800000  * -51.16200000  *
   583       C         79.82200000  *  155.78100000  * -50.60800000  *
   584       H         79.27400000  *  155.67000000  * -49.68700000  *
   585       C         79.96700000  *  157.27800000  * -50.86800000  *
   586       H         80.42300000  *  157.50400000  * -51.79700000  *
   587       H         78.95400000  *  157.66400000  * -50.98900000  *
   588       C         80.57600000  *  158.04300000  * -49.72300000  *
   589       C         79.79300000  *  158.48000000  * -48.65600000  *
   590       H         78.73500000  *  158.25400000  * -48.66900000  *
   591       C         80.35600000  *  159.18600000  * -47.59400000  *
   592       H         79.75300000  *  159.56200000  * -46.79700000  *
   593       C         81.71600000  *  159.45200000  * -47.58700000  *
   594       O         82.27600000  *  160.12500000  * -46.52100000  *
   595       H         83.20600000  *  160.30800000  * -46.74500000  *
   596       C         82.51400000  *  159.02600000  * -48.63700000  *
   597       H         83.58200000  *  159.23300000  * -48.65000000  *
   598       C         81.94100000  *  158.32800000  * -49.69800000  *
   599       H         82.57400000  *  157.98100000  * -50.50200000  *
   600       C         79.04800000  *  155.15800000  * -51.76500000  *
   601       O         79.54400000  *  155.08000000  * -52.88800000  *
   602       N         77.86300000  *  154.62200000  * -51.49600000  *
   603       H         77.53400000  *  154.64800000  * -50.53600000  *
   604       C         76.98300000  *  154.05400000  * -52.51500000  *
   605       H         77.50800000  *  154.00600000  * -53.46300000  *
   606       C         76.55100000  *  152.61900000  * -52.16500000  *
   607       H         75.85900000  *  152.65700000  * -51.33300000  *
   608       H         76.01000000  *  152.21700000  * -53.02200000  *
   609       C         77.68700000  *  151.65000000  * -51.79900000  *
   610       H         78.19800000  *  151.99900000  * -50.90100000  *
   611       C         77.11800000  *  150.26000000  * -51.52000000  *
   612       H         76.62000000  *  149.87100000  * -52.41000000  *
   613       H         77.92300000  *  149.58200000  * -51.23600000  *
   614       H         76.40300000  *  150.31300000  * -50.70000000  *
   615       C         78.69600000  *  151.52900000  * -52.93400000  *
   616       H         79.21400000  *  152.47600000  * -53.06500000  *
   617       H         79.43400000  *  150.76900000  * -52.68400000  *
   618       H         78.18700000  *  151.26100000  * -53.86000000  *
   619       C         75.78700000  *  154.98500000  * -52.67300000  *
   620       O         75.10500000  *  155.26400000  * -51.68400000  *
   621       N         75.54700000  *  155.50800000  * -53.87800000  *
   622       H         76.14500000  *  155.25500000  * -54.66000000  *
   623       C         74.40900000  *  156.37500000  * -54.09400000  *
   624       H         73.97600000  *  156.70200000  * -53.15000000  *
   625       C         74.83400000  *  157.63700000  * -54.81800000  *
   626       H         75.25500000  *  157.34500000  * -55.76600000  *
   627       C         73.61400000  *  158.52200000  * -55.10900000  *
   628       H         73.11700000  *  158.76900000  * -54.17500000  *
   629       H         73.94100000  *  159.43100000  * -55.61500000  *
   630       H         72.91600000  *  158.00900000  * -55.76200000  *
   631       C         75.84000000  *  158.38200000  * -53.94900000  *
   632       H         75.28100000  *  158.78400000  * -53.13000000  *
   633       H         76.65600000  *  157.75800000  * -53.60500000  *
   634       H         76.26100000  *  159.20400000  * -54.52500000  *
   635       C         73.31400000  *  155.64400000  * -54.85300000  *
   636       O         73.49500000  *  155.22100000  * -55.99400000  *
   637       N         72.21400000  *  155.37600000  * -54.15600000  *
   638       H         72.14600000  *  155.73100000  * -53.20700000  *
   639       C         71.03800000  *  154.69800000  * -54.69200000  *
   640       H         71.28600000  *  154.23500000  * -55.64300000  *
   641       C         70.58800000  *  153.60400000  * -53.71900000  *
   642       H         70.46200000  *  154.04200000  * -52.73000000  *
   643       H         69.60900000  *  153.24700000  * -54.03500000  *
   644       C         71.51800000  *  152.40900000  * -53.61200000  *
   645       C         71.37000000  *  151.32100000  * -54.49300000  *
   646       H         70.62600000  *  151.35000000  * -55.27500000  *
   647       C         72.18300000  *  150.18100000  * -54.35500000  *
   648       H         72.05800000  *  149.34200000  * -55.02700000  *
   649       C         73.15400000  *  150.13000000  * -53.34100000  *
   650       H         73.77900000  *  149.25300000  * -53.23400000  *
   651       C         73.30900000  *  151.21800000  * -52.46500000  *
   652       H         74.04800000  *  151.17100000  * -51.68000000  *
   653       C         72.49700000  *  152.35900000  * -52.60100000  *
   654       H         72.61600000  *  153.19100000  * -51.92000000  *
   655       C         69.90400000  *  155.69900000  * -54.92500000  *
   656       O         69.80100000  *  156.70600000  * -54.22300000  *
   657       N         69.02300000  *  155.42500000  * -55.89000000  *
   658       H         69.15700000  *  154.58500000  * -56.44300000  *
   659       C         67.73700000  *  156.13500000  * -55.96700000  *
   660       H         67.95300000  *  157.18300000  * -56.18100000  *
   661       C         66.87300000  *  155.60300000  * -57.12700000  *
   662       H         66.00100000  *  156.25100000  * -57.21500000  *
   663       H         67.44100000  *  155.66500000  * -58.05600000  *
   664       C         66.40400000  *  154.15700000  * -56.92200000  *
   665       H         67.28300000  *  153.51200000  * -56.89600000  *
   666       H         65.89900000  *  154.07900000  * -55.96300000  *
   667       C         65.42600000  *  153.65400000  * -57.99000000  *
   668       O         64.54400000  *  154.40800000  * -58.46200000  *
   669       O         65.49400000  *  152.45300000  * -58.32600000  *
   670       C         66.99200000  *  156.08000000  * -54.61400000  *
   671       O         67.02500000  *  155.06900000  * -53.90300000  *
   672       N         66.32400000  *  157.17100000  * -54.23500000  *
   673       H         66.30000000  *  157.97400000  * -54.84600000  *
   674       C         65.45600000  *  157.18200000  * -53.05700000  *
   675       H         65.89600000  *  156.54700000  * -52.28500000  *
   676       C         65.37400000  *  158.60100000  * -52.48800000  *
   677       H         66.37900000  *  158.93500000  * -52.23200000  *
   678       H         64.98700000  *  159.26800000  * -53.26000000  *
   679       C         64.50900000  *  158.71500000  * -51.24800000  *
   680       C         63.24700000  *  159.33600000  * -51.31300000  *
   681       H         62.88900000  *  159.74500000  * -52.24800000  *
   682       C         62.44200000  *  159.42000000  * -50.16300000  *
   683       H         61.47100000  *  159.89200000  * -50.21900000  *
   684       C         62.89500000  *  158.88400000  * -48.94600000  *
   685       H         62.27500000  *  158.94400000  * -48.06200000  *
   686       C         64.15500000  *  158.26400000  * -48.87800000  *
   687       H         64.50100000  *  157.84600000  * -47.94200000  *
   688       C         64.96000000  *  158.17900000  * -50.02700000  *
   689       H         65.92500000  *  157.69400000  * -49.97500000  *
   690       C         64.06500000  *  156.62600000  * -53.39300000  *
   691       O         63.46600000  *  156.99500000  * -54.40600000  *
   692       N         63.53600000  *  155.77700000  * -52.51100000  *
   693       H         64.09600000  *  155.52900000  * -51.70400000  *
   694       C         62.13400000  *  155.35100000  * -52.48400000  *
   695       H         61.56500000  *  155.88000000  * -53.25100000  *
   696       C         62.01600000  *  153.83900000  * -52.73200000  *
   697       H         62.68700000  *  153.31700000  * -52.05200000  *
   698       H         60.99600000  *  153.54500000  * -52.48000000  *
   699       C         62.30000000  *  153.42000000  * -54.18800000  *
   700       H         62.09000000  *  154.25200000  * -54.86000000  *
   701       C         63.75100000  *  152.97700000  * -54.36900000  *
   702       H         63.96700000  *  152.14100000  * -53.70700000  *
   703       H         63.92200000  *  152.68000000  * -55.40300000  *
   704       H         64.42400000  *  153.79800000  * -54.12700000  *
   705       C         61.41000000  *  152.24600000  * -54.59800000  *
   706       H         60.36100000  *  152.51500000  * -54.47400000  *
   707       H         61.57900000  *  152.00300000  * -55.64600000  *
   708       H         61.62800000  *  151.37300000  * -53.98600000  *
   709       C         61.53700000  *  155.72300000  * -51.12600000  *
   710       O         62.23600000  *  155.73500000  * -50.11700000  *
   711       N         60.25600000  *  156.07200000  * -51.08500000  *
   712       H         59.73400000  *  156.08600000  * -51.95200000  *
   713       C         59.67500000  *  156.77200000  * -49.93700000  *
   714       H         60.40500000  *  157.50100000  * -49.58300000  *
   715       C         58.45600000  *  157.56700000  * -50.41800000  *
   716       H         57.66800000  *  156.87000000  * -50.70200000  *
   717       H         58.10200000  *  158.17900000  * -49.59000000  *
   718       C         58.72800000  *  158.47900000  * -51.59300000  *
   719       N         58.85800000  *  158.07300000  * -52.92600000  *
   720       C         59.10900000  *  159.19100000  * -53.62900000  *
   721       H         59.26200000  *  159.23000000  * -54.70300000  *
   722       N         59.14300000  *  160.25900000  * -52.81300000  *
   723       H         59.31000000  *  161.21600000  * -53.11100000  *
   724       C         58.90500000  *  159.83100000  * -51.52600000  *
   725       H         58.86400000  *  160.44000000  * -50.63100000  *
   726       C         59.35000000  *  155.88500000  * -48.71700000  *
   727       O         59.10700000  *  156.42800000  * -47.63900000  *
   728       N         59.35900000  *  154.55100000  * -48.85100000  *
   729       H         59.56900000  *  154.16400000  * -49.76100000  *
   730       C         59.01700000  *  153.60100000  * -47.77800000  *
   731       H         59.45100000  *  153.96900000  * -46.84600000  *
   732       C         57.48000000  *  153.58100000  * -47.62200000  *
   733       H         57.14800000  *  154.58900000  * -47.36900000  *
   734       H         57.01800000  *  153.30600000  * -48.57200000  *
   735       C         56.97700000  *  152.62200000  * -46.53200000  *
   736       H         56.82100000  *  151.63800000  * -46.97100000  *
   737       H         57.72800000  *  152.54100000  * -45.74900000  *
   738       C         55.68700000  *  153.09900000  * -45.87500000  *
   739       O         55.69400000  *  153.75100000  * -44.84400000  *
   740       N         54.53300000  *  152.79500000  * -46.43000000  *
   741       H         53.70400000  *  153.13200000  * -45.96400000  *
   742       H         54.49800000  *  152.28800000  * -47.29600000  *
   743       C         59.59000000  *  152.18600000  * -48.02600000  *
   744       O         59.67500000  *  151.74200000  * -49.17200000  *
   745       N         59.95600000  *  151.46300000  * -46.95600000  *
   746       H         59.87200000  *  151.88000000  * -46.04300000  *
   747       C         60.28500000  *  150.02700000  * -47.01100000  *
   748       H         60.58300000  *  149.80400000  * -48.03200000  *
   749       C         61.51800000  *  149.69700000  * -46.14100000  *
   750       H         61.86600000  *  148.70700000  * -46.43900000  *
   751       H         62.31000000  *  150.40400000  * -46.39100000  *
   752       C         61.32500000  *  149.67900000  * -44.61500000  *
   753       O         60.22800000  *  149.32200000  * -44.13800000  *
   754       O         62.30000000  *  149.98400000  * -43.89100000  *
   755       C         59.07500000  *  149.11200000  * -46.71700000  *
   756       O         58.03700000  *  149.55000000  * -46.20200000  *
   757       N         59.19100000  *  147.81900000  * -47.04800000  *
   758       H         60.03800000  *  147.50900000  * -47.52500000  *
   759       C         58.10100000  *  146.88000000  * -46.84100000  *
   760       H         57.21800000  *  147.32500000  * -47.29300000  *
   761       C         58.41200000  *  145.57700000  * -47.59200000  *
   762       H         58.61300000  *  145.80400000  * -48.64400000  *
   763       H         59.28800000  *  145.12100000  * -47.15800000  *
   764       C         57.28700000  *  144.52700000  * -47.51900000  *
   765       H         57.05600000  *  144.28000000  * -46.48700000  *
   766       C         56.00700000  *  145.04400000  * -48.19600000  *
   767       H         56.23500000  *  145.37800000  * -49.20200000  *
   768       H         55.26800000  *  144.24500000  * -48.23100000  *
   769       H         55.59500000  *  145.87000000  * -47.62900000  *
   770       C         57.76800000  *  143.24900000  * -48.17500000  *
   771       H         58.61500000  *  142.85400000  * -47.62000000  *
   772       H         56.97300000  *  142.50400000  * -48.17100000  *
   773       H         58.06400000  *  143.44500000  * -49.20700000  *
   774       C         57.76400000  *  146.61300000  * -45.36900000  *
   775       O         56.60900000  *  146.37600000  * -45.03000000  *
   776       N         58.75700000  *  146.67700000  * -44.48800000  *
   777       H         59.64000000  *  147.08600000  * -44.79000000  *
   778       C         58.49100000  *  146.46700000  * -43.07300000  *
   779       H         57.97900000  *  145.55100000  * -42.87200000  *
   780       C         59.78200000  *  146.47800000  * -42.25400000  *
   781       H         60.44800000  *  145.70000000  * -42.62000000  *
   782       H         60.28600000  *  147.44000000  * -42.35600000  *
   783       C         59.49200000  *  146.22900000  * -40.76500000  *
   784       H         58.94200000  *  147.08300000  * -40.37400000  *
   785       H         58.87100000  *  145.33200000  * -40.67600000  *
   786       C         60.74500000  *  146.03800000  * -39.93500000  *
   787       H         61.36100000  *  145.25900000  * -40.37900000  *
   788       H         61.30800000  *  146.97100000  * -39.90700000  *
   789       C         60.37600000  *  145.60700000  * -38.51700000  *
   790       H         59.98500000  *  144.58900000  * -38.53700000  *
   791       H         61.27900000  *  145.61300000  * -37.90300000  *
   792       N         59.34600000  *  146.53100000  * -37.94700000  *
   793       H         58.44600000  *  146.48100000  * -38.44300000  *
   794       H         59.09000000  *  146.27800000  * -37.00400000  *
   795       H         59.61300000  *  147.50600000  * -37.97800000  *
   796       C         57.55800000  *  147.53800000  * -42.51200000  *
   797       O         56.61300000  *  147.23400000  * -41.78300000  *
   798       N         57.83200000  *  148.81200000  * -42.80400000  *
   799       H         58.65800000  *  149.00800000  * -43.37400000  *
   800       C         57.00900000  *  149.93100000  * -42.33100000  *
   801       H         56.89900000  *  149.84900000  * -41.24800000  *
   802       C         57.71800000  *  151.25900000  * -42.64200000  *
   803       H         58.73600000  *  151.21300000  * -42.25000000  *
   804       H         57.76900000  *  151.40100000  * -43.72100000  *
   805       C         56.99900000  *  152.45200000  * -41.99200000  *
   806       H         56.00500000  *  152.55600000  * -42.42600000  *
   807       H         56.89200000  *  152.26500000  * -40.92200000  *
   808       C         57.78100000  *  153.75900000  * -42.19000000  *
   809       H         58.74800000  *  153.67600000  * -41.69100000  *
   810       H         57.94200000  *  153.93100000  * -43.25600000  *
   811       C         56.98800000  *  154.92800000  * -41.59200000  *
   812       H         56.02700000  *  154.99900000  * -42.11100000  *
   813       H         56.78300000  *  154.70900000  * -40.54000000  *
   814       N         57.72300000  *  156.21300000  * -41.70500000  *
   815       H         57.90300000  *  156.45100000  * -42.66900000  *
   816       H         57.19100000  *  156.96900000  * -41.29900000  *
   817       H         58.60800000  *  156.17200000  * -41.22100000  *
   818       C         55.60500000  *  149.84200000  * -42.92500000  *
   819       O         54.62700000  *  150.08700000  * -42.22600000  *
   820       N         55.49500000  *  149.42600000  * -44.18900000  *
   821       H         56.35000000  *  149.26300000  * -44.71300000  *
   822       C         54.20500000  *  149.26000000  * -44.85200000  *
   823       H         53.62600000  *  150.17500000  * -44.72500000  *
   824       C         54.41000000  *  148.98800000  * -46.34000000  *
   825       H         54.98900000  *  149.80200000  * -46.77700000  *
   826       H         55.00200000  *  148.07700000  * -46.45200000  *
   827       C         53.12600000  *  148.85300000  * -47.10800000  *
   828       C         52.23100000  *  149.92200000  * -47.18600000  *
   829       H         52.46300000  *  150.85600000  * -46.69900000  *
   830       C         51.01500000  *  149.79500000  * -47.88400000  *
   831       H         50.32500000  *  150.62800000  * -47.91800000  *
   832       C         50.69700000  *  148.60300000  * -48.50200000  *
   833       H         49.75200000  *  148.50200000  * -49.02000000  *
   834       C         51.58700000  *  147.52100000  * -48.43200000  *
   835       H         51.33500000  *  146.58300000  * -48.91200000  *
   836       C         52.79500000  *  147.65400000  * -47.73300000  *
   837       H         53.46700000  *  146.81000000  * -47.67200000  *
   838       C         53.37400000  *  148.12200000  * -44.22700000  *
   839       O         52.16900000  *  148.28300000  * -44.00900000  *
   840       N         54.01600000  *  146.98100000  * -43.96600000  *
   841       H         55.00900000  *  146.90600000  * -44.17900000  *
   842       C         53.33800000  *  145.83600000  * -43.34100000  *
   843       H         52.47600000  *  145.52800000  * -43.93400000  *
   844       C         54.29200000  *  144.65000000  * -43.17000000  *
   845       H         55.15800000  *  145.02700000  * -42.63600000  *
   846       H         53.80700000  *  143.89200000  * -42.54700000  *
   847       C         54.73100000  *  144.00400000  * -44.46100000  *
   848       H         53.84700000  *  143.61400000  * -44.95900000  *
   849       H         55.19200000  *  144.69400000  * -45.15000000  *
   850       S         55.79700000  *  142.58100000  * -44.15400000  *
   851       C         57.05400000  *  143.29200000  * -43.18800000  *
   852       H         56.67800000  *  143.65800000  * -42.23500000  *
   853       H         57.80700000  *  142.53400000  * -42.98200000  *
   854       H         57.44300000  *  144.07900000  * -43.80900000  *
   855       C         52.84400000  *  146.26000000  * -41.95900000  *
   856       O         51.68200000  *  146.03200000  * -41.61400000  *
   857       N         53.72600000  *  146.88400000  * -41.17900000  *
   858       H         54.70100000  *  146.95700000  * -41.45300000  *
   859       C         53.34300000  *  147.35100000  * -39.84600000  *
   860       H         53.03400000  *  146.49700000  * -39.23800000  *
   861       C         54.50500000  *  148.07700000  * -39.15700000  *
   862       H         54.94100000  *  148.81500000  * -39.83000000  *
   863       H         54.12400000  *  148.60600000  * -38.28400000  *
   864       C         55.58400000  *  147.11500000  * -38.68500000  *
   865       O         55.26200000  *  145.90900000  * -38.57600000  *
   866       O         56.73300000  *  147.55200000  * -38.41700000  *
   867       C         52.15000000  *  148.27900000  * -39.96300000  *
   868       O         51.20300000  *  148.18000000  * -39.18700000  *
   869       N         52.18300000  *  149.16200000  * -40.95500000  *
   870       H         53.01600000  *  149.23700000  * -41.51800000  *
   871       C         51.08600000  *  150.10000000  * -41.17300000  *
   872       H         50.93100000  *  150.67400000  * -40.25800000  *
   873       C         51.42800000  *  151.06800000  * -42.31500000  *
   874       H         51.45500000  *  150.53900000  * -43.26600000  *
   875       H         50.66000000  *  151.83800000  * -42.36800000  *
   876       H         52.39300000  *  151.53600000  * -42.12800000  *
   877       C         49.78900000  *  149.37000000  * -41.49900000  *
   878       O         48.71100000  *  149.83600000  * -41.15600000  *
   879       N         49.90500000  *  148.22900000  * -42.16400000  *
   880       H         50.83800000  *  147.88500000  * -42.38200000  *
   881       C         48.74000000  *  147.45400000  * -42.57500000  *
   882       H         47.85700000  *  148.08600000  * -42.62800000  *
   883       H         48.90600000  *  147.02300000  * -43.58600000  *
   884       H         48.52600000  *  146.61900000  * -41.88800000  *
   885       H         72.54500000  *  137.05800000  * -55.15200000  *
   886       C         72.38600000  *  137.90500000  * -54.47400000  *
   887       O         73.28300000  *  138.71900000  * -54.28600000  *
   888       N         71.20100000  *  138.01500000  * -53.89800000  *
   889       H         70.47300000  *  137.31400000  * -54.05700000  *
   890       C         70.96800000  *  139.10000000  * -52.94900000  *
   891       H         71.50000000  *  140.00600000  * -53.22900000  *
   892       C         69.47700000  *  139.40500000  * -52.82500000  *
   893       H         69.09300000  *  139.71900000  * -53.79200000  *
   894       H         68.93000000  *  138.50600000  * -52.53300000  *
   895       C         69.17800000  *  140.45400000  * -51.81200000  *
   896       N         69.23000000  *  140.42300000  * -50.45900000  *
   897       C         68.94700000  *  141.69100000  * -50.01400000  *
   898       H         68.96900000  *  142.01200000  * -48.98400000  *
   899       N         68.72400000  *  142.47200000  * -51.05500000  *
   900       H         68.47200000  *  143.44500000  * -51.00700000  *
   901       C         68.85400000  *  141.75000000  * -52.15500000  *
   902       H         68.77100000  *  142.12600000  * -53.16500000  *
   903       C         71.52100000  *  138.65700000  * -51.58300000  *
   904       O         72.28000000  *  139.38000000  * -50.94700000  *
   905       N         71.11400000  *  137.47100000  * -51.14500000  *
   906       H         70.37100000  *  137.01600000  * -51.66500000  *
   907       C         71.55500000  *  136.88000000  * -49.87700000  *
   908       H         71.18200000  *  135.84900000  * -49.87900000  *
   909       C         73.07600000  *  136.85300000  * -49.83700000  *
   910       H         73.53100000  *  137.83300000  * -49.86900000  *
   911       H         73.36600000  *  136.47900000  * -48.85100000  *
   912       C         73.64700000  *  135.85900000  * -50.81700000  *
   913       H         73.29800000  *  134.87100000  * -50.67200000  *
   914       H         73.21600000  *  136.10500000  * -51.78700000  *
   915       C         75.11700000  *  136.08400000  * -50.99900000  *
   916       H         75.61200000  *  135.95400000  * -50.03300000  *
   917       H         75.49500000  *  135.33200000  * -51.69500000  *
   918       N         75.35800000  *  137.42700000  * -51.50600000  *
   919       H         74.62100000  *  138.12700000  * -51.38200000  *
   920       C         76.54800000  *  137.85900000  * -51.89000000  *
   921       N         77.59300000  *  137.04400000  * -51.81500000  *
   922       H         77.44700000  *  136.21200000  * -51.26800000  *
   923       H         78.49900000  *  137.44300000  * -51.92100000  *
   924       N         76.69000000  *  139.09300000  * -52.35600000  *
   925       H         75.86000000  *  139.69200000  * -52.33800000  *
   926       H         77.56200000  *  139.47800000  * -52.67100000  *
   927       C         71.03700000  *  137.42400000  * -48.54200000  *
   928       O         71.18700000  *  136.76800000  * -47.50900000  *
   929       N         70.43700000  *  138.60400000  * -48.51600000  *
   930       H         70.32800000  *  139.16900000  * -49.34700000  *
   931       C         69.93700000  *  139.07600000  * -47.23100000  *
   932       H         69.76500000  *  138.24900000  * -46.54100000  *
   933       C         70.93500000  *  140.04200000  * -46.56200000  *
   934       H         71.90900000  *  139.56600000  * -46.50900000  *
   935       H         71.04400000  *  140.94300000  * -47.17900000  *
   936       C         70.51300000  *  140.42800000  * -45.14700000  *
   937       O         70.17200000  *  139.51500000  * -44.35500000  *
   938       O         70.51000000  *  141.64400000  * -44.82500000  *
   939       C         68.58700000  *  139.73400000  * -47.37800000  *
   940       O         68.35000000  *  140.81000000  * -46.83500000  *
   941       N         67.68700000  *  139.08300000  * -48.11000000  *
   942       H         67.94300000  *  138.20800000  * -48.54500000  *
   943       C         66.35900000  *  139.64900000  * -48.29900000  *
   944       H         66.47700000  *  140.66700000  * -48.65900000  *
   945       C         65.54600000  *  138.81300000  * -49.28800000  *
   946       H         65.58300000  *  137.78400000  * -48.94500000  *
   947       H         64.50600000  *  139.14000000  * -49.25500000  *
   948       C         66.02700000  *  138.85500000  * -50.73600000  *
   949       H         67.06400000  *  138.52800000  * -50.78200000  *
   950       C         65.17300000  *  137.91700000  * -51.58300000  *
   951       H         64.15900000  *  138.30500000  * -51.68800000  *
   952       H         65.63400000  *  137.80700000  * -52.55000000  *
   953       H         65.13400000  *  136.93500000  * -51.11000000  *
   954       C         65.92100000  *  140.27700000  * -51.26400000  *
   955       H         66.42000000  *  140.99600000  * -50.63300000  *
   956       H         66.44200000  *  140.27500000  * -52.20900000  *
   957       H         64.88200000  *  140.56100000  * -51.39700000  *
   958       C         65.59400000  *  139.73400000  * -46.98200000  *
   959       O         65.58600000  *  138.79200000  * -46.16600000  *
   960       N         64.95900000  *  140.85700000  * -46.74200000  *
   961       H         64.96700000  *  141.58800000  * -47.44000000  *
   962       C         64.17200000  *  141.06600000  * -45.54100000  *
   963       H         63.56300000  *  140.17400000  * -45.39700000  *
   964       C         65.05300000  *  141.23700000  * -44.28400000  *
   965       H         64.41900000  *  141.29800000  * -43.39900000  *
   966       H         65.65600000  *  140.33600000  * -44.16700000  *
   967       C         65.98500000  *  142.45600000  * -44.29200000  *
   968       H         66.39000000  *  142.60100000  * -45.29000000  *
   969       H         65.42600000  *  143.34500000  * -43.99900000  *
   970       C         67.14700000  *  142.20900000  * -43.32100000  *
   971       H         66.75400000  *  141.94100000  * -42.33800000  *
   972       H         67.73000000  *  141.36800000  * -43.70500000  *
   973       C         68.04900000  *  143.43900000  * -43.18300000  *
   974       H         68.13900000  *  143.92700000  * -44.15800000  *
   975       H         67.57000000  *  144.15000000  * -42.49900000  *
   976       N         69.39400000  *  143.04800000  * -42.68300000  *
   977       H         69.87500000  *  142.45800000  * -43.37500000  *
   978       H         69.96400000  *  143.86200000  * -42.49000000  *
   979       H         69.31600000  *  142.52300000  * -41.82100000  *
   980       C         63.26700000  *  142.23000000  * -45.83500000  *
   981       O         63.62600000  *  143.07400000  * -46.65600000  *
   982       N         62.11200000  *  142.30300000  * -45.18600000  *
   983       C         61.62600000  *  141.34600000  * -44.17100000  *
   984       H         62.10000000  *  141.53200000  * -43.20900000  *
   985       H         61.74500000  *  140.31100000  * -44.47600000  *
   986       C         60.16400000  *  141.66900000  * -44.09500000  *
   987       H         59.73700000  *  141.34900000  * -43.14300000  *
   988       H         59.63700000  *  141.20600000  * -44.93200000  *
   989       C         60.16000000  *  143.18900000  * -44.24800000  *
   990       H         60.51600000  *  143.64900000  * -43.32100000  *
   991       H         59.20200000  *  143.56500000  * -44.57400000  *
   992       C         61.14500000  *  143.38000000  * -45.40300000  *
   993       H         60.63400000  *  143.20500000  * -46.34500000  *
   994       C         61.77100000  *  144.77100000  * -45.44800000  *
   995       O         61.39200000  *  145.58400000  * -46.27300000  *
   996       N         62.72600000  *  145.09100000  * -44.55700000  *
   997       H         62.97200000  *  144.40400000  * -43.86000000  *
   998       C         63.44200000  *  146.39000000  * -44.53900000  *
   999       H         62.70900000  *  147.19400000  * -44.45100000  *
  1000       C         64.39500000  *  146.46600000  * -43.33300000  *
  1001       H         65.08300000  *  145.62100000  * -43.36900000  *
  1002       H         64.98700000  *  147.37900000  * -43.42000000  *
  1003       C         63.69200000  *  146.50100000  * -41.97000000  *
  1004       H         62.99100000  *  147.33600000  * -41.95800000  *
  1005       H         63.13600000  *  145.57700000  * -41.82100000  *
  1006       C         64.68900000  *  146.65200000  * -40.81900000  *
  1007       O         65.71600000  *  145.99000000  * -40.76000000  *
  1008       N         64.43100000  *  147.51300000  * -39.85900000  *
  1009       H         65.09800000  *  147.60200000  * -39.10700000  *
  1010       H         63.61300000  *  148.10200000  * -39.89400000  *
  1011       C         64.27800000  *  146.67500000  * -45.80500000  *
  1012       O         64.48600000  *  147.82900000  * -46.17100000  *
  1013       N         64.75600000  *  145.62500000  * -46.47600000  *
  1014       H         64.46400000  *  144.70600000  * -46.17600000  *
  1015       C         65.53600000  *  145.68600000  * -47.71300000  *
  1016       H         66.10600000  *  146.61800000  * -47.74000000  *
  1017       C         66.54100000  *  144.50500000  * -47.74200000  *
  1018       H         66.02500000  *  143.57600000  * -47.51500000  *
  1019       H         66.94500000  *  144.40600000  * -48.74800000  *
  1020       C         67.74200000  *  144.65800000  * -46.81700000  *
  1021       O         68.00800000  *  145.70600000  * -46.25500000  *
  1022       N         68.52400000  *  143.62000000  * -46.62100000  *
  1023       H         69.37000000  *  143.74700000  * -46.09100000  *
  1024       H         68.28800000  *  142.68100000  * -46.92900000  *
  1025       C         64.63400000  *  145.70500000  * -48.96600000  *
  1026       O         65.15800000  *  145.61800000  * -50.07400000  *
  1027       N         63.30000000  *  145.80300000  * -48.83400000  *
  1028       H         62.89500000  *  145.87300000  * -47.90900000  *
  1029       C         62.40600000  *  145.84500000  * -49.97900000  *
  1030       H         62.94700000  *  145.74800000  * -50.91900000  *
  1031       C         61.36900000  *  144.72100000  * -49.88900000  *
  1032       H         60.76900000  *  144.86100000  * -48.99200000  *
  1033       H         60.74400000  *  144.79800000  * -50.77200000  *
  1034       C         62.03600000  *  143.32400000  * -49.85900000  *
  1035       H         62.67100000  *  143.24000000  * -48.98800000  *
  1036       C         61.00200000  *  142.26000000  * -49.77100000  *
  1037       H         60.24600000  *  142.42800000  * -50.53400000  *
  1038       H         61.44700000  *  141.27100000  * -49.89000000  *
  1039       H         60.52000000  *  142.31900000  * -48.79800000  *
  1040       C         62.89500000  *  143.12600000  * -51.08400000  *
  1041       H         63.82900000  *  143.66800000  * -50.95600000  *
  1042       H         63.12900000  *  142.06900000  * -51.20900000  *
  1043       H         62.39300000  *  143.49200000  * -51.96600000  *
  1044       C         61.76300000  *  147.21800000  * -49.95200000  *
  1045       O         61.15000000  *  147.60200000  * -48.96600000  *
  1046       N         61.87800000  *  147.97700000  * -51.03300000  *
  1047       H         62.36800000  *  147.60500000  * -51.84100000  *
  1048       C         61.44100000  *  149.37100000  * -51.06100000  *
  1049       H         61.05500000  *  149.67200000  * -50.08900000  *
  1050       C         62.62400000  *  150.27400000  * -51.38800000  *
  1051       H         62.95300000  *  150.06700000  * -52.40800000  *
  1052       H         62.27300000  *  151.30100000  * -51.33200000  *
  1053       C         63.81800000  *  150.10100000  * -50.44000000  *
  1054       H         64.21800000  *  149.09300000  * -50.52800000  *
  1055       C         64.87900000  *  151.09400000  * -50.86700000  *
  1056       H         64.51700000  *  152.09900000  * -50.67600000  *
  1057       H         65.79400000  *  150.90000000  * -50.31200000  *
  1058       H         65.08300000  *  151.01100000  * -51.92500000  *
  1059       C         63.48200000  *  150.36700000  * -48.97600000  *
  1060       H         62.81700000  *  149.59000000  * -48.61300000  *
  1061       H         64.39100000  *  150.33100000  * -48.37900000  *
  1062       H         63.00400000  *  151.34000000  * -48.86500000  *
  1063       C         60.32200000  *  149.56200000  * -52.06500000  *
  1064       O         60.41800000  *  149.10300000  * -53.19100000  *
  1065       N         59.26800000  *  150.25600000  * -51.67700000  *
  1066       H         59.36500000  *  150.76300000  * -50.80000000  *
  1067       C         58.08300000  *  150.44700000  * -52.50800000  *
  1068       H         58.17300000  *  149.92400000  * -53.45700000  *
  1069       C         56.81900000  *  149.90600000  * -51.78600000  *
  1070       H         55.94300000  *  150.08700000  * -52.41500000  *
  1071       C         56.95000000  *  148.40400000  * -51.54300000  *
  1072       H         57.75300000  *  148.18300000  * -50.83300000  *
  1073       H         56.01300000  *  148.00400000  * -51.15200000  *
  1074       H         57.15800000  *  147.91500000  * -52.48900000  *
  1075       C         56.64700000  *  150.60600000  * -50.43300000  *
  1076       H         57.48200000  *  150.38000000  * -49.77500000  *
  1077       H         56.60500000  *  151.68300000  * -50.57600000  *
  1078       C         55.37000000  *  150.22200000  * -49.68600000  *
  1079       H         55.48900000  *  149.24800000  * -49.22200000  *
  1080       H         55.17000000  *  150.96500000  * -48.91000000  *
  1081       H         54.52900000  *  150.16800000  * -50.38500000  *
  1082       C         57.87200000  *  151.93000000  * -52.81700000  *
  1083       O         58.38200000  *  152.79400000  * -52.10000000  *
  1084       N         57.14900000  *  152.22000000  * -53.89700000  *
  1085       H         56.70500000  *  151.48200000  * -54.43300000  *
  1086       C         56.84100000  *  153.60200000  * -54.22700000  *
  1087       H         57.16800000  *  154.27800000  * -53.43100000  *
  1088       C         57.50400000  *  154.05300000  * -55.54100000  *
  1089       H         57.21800000  *  155.07000000  * -55.80500000  *
  1090       H         58.58200000  *  154.04400000  * -55.38800000  *
  1091       C         57.19300000  *  153.14600000  * -56.70100000  *
  1092       O         56.13500000  *  152.53500000  * -56.76400000  *
  1093       N         58.11500000  *  153.07200000  * -57.64100000  *
  1094       H         57.83300000  *  152.61700000  * -58.48600000  *
  1095       H         58.88600000  *  153.71500000  * -57.62100000  *
  1096       C         55.33100000  *  153.75800000  * -54.32100000  *
  1097       O         54.57600000  *  152.79900000  * -54.11400000  *
  1098       N         54.88500000  *  154.97100000  * -54.62100000  *
  1099       H         55.52100000  *  155.73600000  * -54.79200000  *
  1100       C         53.46400000  *  155.24700000  * -54.72300000  *
  1101       H         52.92700000  *  154.82600000  * -53.87200000  *
  1102       C         53.20900000  *  156.78000000  * -54.75500000  *
  1103       H         52.16900000  *  156.98000000  * -55.02600000  *
  1104       C         53.47800000  *  157.39700000  * -53.41000000  *
  1105       H         54.52100000  *  157.25500000  * -53.13000000  *
[...]
 1005  H   0.85684
 1006  C   1.06680   0.81370   0.74921   0.79697
 1007  O   1.88293   1.35785   1.54341   1.79707
 1008  N   1.52735   1.34131   1.43383   1.33003
 1009  H   0.66558
 1010  H   0.69322
 1011  C   1.08379   0.76746   0.79157   0.82000
 1012  O   1.88926   1.62236   1.28586   1.70528
 1013  N   1.55231   1.52375   1.20220   1.30607
 1014  H   0.67315
 1015  C   1.07108   0.94259   1.09022   0.82110
 1016  H   0.80373
 1017  C   1.06994   1.05873   1.09271   1.15380
 1018  H   0.83528
 1019  H   0.80722
 1020  C   1.06090   0.80694   0.77825   0.78095
 1021  O   1.88045   1.75245   1.39637   1.55910
 1022  N   1.53343   1.32096   1.20541   1.58582
 1023  H   0.66884
 1024  H   0.65914
 1025  C   1.09145   0.78487   0.71123   0.85313
 1026  O   1.87660   1.77154   1.62520   1.39265
 1027  N   1.54134   1.12613   1.65961   1.18429
 1028  H   0.64916
 1029  C   1.06943   0.96915   0.98299   0.97406
 1030  H   0.81559
 1031  C   1.06727   1.06538   0.99383   1.17584
 1032  H   0.83249
 1033  H   0.84906
 1034  C   1.04097   1.01072   0.95031   1.05979
 1035  H   0.85360
 1036  C   1.04882   1.12525   1.11264   1.17385
 1037  H   0.84858
 1038  H   0.85733
 1039  H   0.86052
 1040  C   1.05134   1.14407   1.16459   1.10198
 1041  H   0.84367
 1042  H   0.86467
 1043  H   0.85167
 1044  C   1.07589   0.75413   0.84320   0.75893
 1045  O   1.87368   1.52531   1.79125   1.43930
 1046  N   1.54558   1.56465   1.17237   1.24393
 1047  H   0.64949
 1048  C   1.06491   0.98804   0.82476   1.10386
 1049  H   0.80924
 1050  C   1.06450   1.02325   1.10938   1.12144
 1051  H   0.85092
 1052  H   0.84040
 1053  C   1.04840   0.96248   1.06963   0.97794
 1054  H   0.86829
 1055  C   1.05306   1.11977   1.14013   1.15748
 1056  H   0.84573
 1057  H   0.85845
 1058  H   0.86369
 1059  C   1.05472   1.18292   1.17969   1.03523
 1060  H   0.83493
 1061  H   0.84711
 1062  H   0.84649
 1063  C   1.07505   0.79907   0.74355   0.81529
 1064  O   1.86817   1.83427   1.63161   1.34621
 1065  N   1.54172   1.18876   1.46579   1.29622
 1066  H   0.64126
 1067  C   1.07620   0.89301   1.00301   1.04027
 1068  H   0.81386
 1069  C   1.06493   1.01303   0.99093   1.02334
 1070  H   0.84071
 1071  C   1.05435   1.18026   1.03661   1.17295
 1072  H   0.84447
 1073  H   0.84618
 1074  H   0.85590
 1075  C   1.05409   1.07431   1.11933   1.02949
 1076  H   0.84529
 1077  H   0.86150
 1078  C   1.05242   1.08449   1.16072   1.13143
 1079  H   0.84614
 1080  H   0.87500
 1081  H   0.84813
 1082  C   1.08731   0.74054   0.88963   0.74107
 1083  O   1.88697   1.56975   1.57754   1.55341
 1084  N   1.54368   1.50782   1.14233   1.34158
 1085  H   0.63838
 1086  C   1.06105   0.99475   0.88820   1.01516
 1087  H   0.80675
 1088  C   1.07120   1.17471   1.11414   1.04424
 1089  H   0.83005
 1090  H   0.81688
 1091  C   1.06730   0.77890   0.79265   0.82253
 1092  O   1.88773   1.30737   1.50602   1.80325
 1093  N   1.53665   1.31167   1.52143   1.27868
 1094  H   0.69293
 1095  H   0.69405
 1096  C   1.08074   0.88496   0.77791   0.75176
 1097  O   1.89446   1.62411   1.43448   1.52570
 1098  N   1.54122   1.14535   1.19511   1.69385
 1099  H   0.67698
 1100  C   1.08539   0.83300   1.04110   1.09607
 1101  H   0.80895
 1102  C   1.08456   0.98707   0.88298   0.88990
 1103  H   0.85791
 1104  C   1.05301   1.18536   1.17299   1.05351
 1105  H   0.83902
 1106  H   0.83140
 1107  H   0.83408
 1108  O   1.85147   1.58056   1.82044   1.32244
 1109  H   0.67569
 1110  C   1.07458   0.81026   0.77003   0.81924
 1111  O   1.88598   1.23155   1.61625   1.81387
 1112  N   1.53429   1.18210   1.58143   1.22128
 1113  H   0.69136
 1114  C   1.05383   1.13279   1.13983   0.88764
 1115  H   0.84123
 1116  H   0.87142
 1117  H   0.83542
 1118  H   0.86772
 1119  C   1.10017   0.76466   0.75340   0.92054
 1120  O   1.88717   1.66995   1.57179   1.45699
 1121  N   1.54651   1.44422   1.35134   1.20806
 1122  H   0.67428
 1123  C   1.08024   0.92957   1.08543   0.92416
 1124  H   0.81001
 1125  C   1.07315   1.07899   0.95456   0.98273
 1126  H   0.84447
 1127  C   1.05754   1.18810   1.08043   1.12368
 1128  H   0.83778
 1129  H   0.85397
 1130  H   0.85845
 1131  C   1.05396   1.07452   1.13478   1.01845
 1132  H   0.85595
 1133  H   0.85313
 1134  C   1.04893   1.14436   1.14763   1.09035
 1135  H   0.85588
 1136  H   0.85924
 1137  H   0.84922
 1138  C   1.07503   0.84246   0.74910   0.79229
 1139  O   1.88226   1.88195   1.48236   1.36306
 1140  N   1.54638   1.09810   1.54183   1.34228
 1141  H   0.63215
 1142  C   1.06857   0.84970   1.04348   1.03857
 1143  H   0.81422
 1144  C   1.05969   1.08833   1.05597   1.09044
 1145  H   0.83194
 1146  H   0.84703
 1147  C   1.05088   1.08869   1.03325   1.08248
 1148  H   0.85984
 1149  H   0.83941
 1150  C   1.06096   1.07565   1.05673   1.09759
 1151  H   0.82483
 1152  H   0.82695
 1153  C   1.08084   1.03059   0.99285   1.07444
 1154  H   0.83871
 1155  H   0.82665
 1156  N   1.46625   1.22991   1.24781   1.26120
 1157  H   0.65328
 1158  H   0.70071
 1159  H   0.73240
 1160  C   1.07981   0.77834   0.75072   0.82887
 1161  O   1.88195   1.76762   1.68875   1.28816
 1162  N   1.54487   1.33074   1.42947   1.22895
 1163  H   0.64223
 1164  C   1.06974   0.91839   0.95571   1.02987
 1165  H   0.83113
 1166  C   1.06260   1.09809   1.02057   1.13362
 1167  H   0.83457
 1168  H   0.84816
 1169  C   1.05388   1.07585   0.96017   0.95827
 1170  H   0.85419
 1171  C   1.06150   1.15490   1.13919   1.09678
 1172  H   0.86256
 1173  H   0.85281
 1174  H   0.84807
 1175  C   1.05713   1.17427   1.13648   1.09484
 1176  H   0.85035
 1177  H   0.85391
 1178  H   0.86051
 1179  C   1.08606   0.79171   0.80055   0.75844
 1180  O   1.88114   1.63241   1.59753   1.53772
 1181  N   1.54378   1.36553   1.43827   1.16240
 1182  H   0.64084
 1183  C   1.06665   0.91315   0.93173   1.04636
 1184  H   0.83150
 1185  C   1.05921   1.16333   1.07861   1.15837
 1186  H   0.81499
 1187  H   0.85406
 1188  H   0.81868
 1189  C   1.09009   0.78257   0.78977   0.74524
 1190  O   1.87254   1.83308   1.35523   1.58981
 1191  N   1.54731   1.18379   1.32016   1.49896
 1192  H   0.68696
 1193  C   1.07535   0.88228   1.07124   0.93621
 1194  H   0.83459
 1195  C   1.07844   1.15341   1.17258   1.00630
 1196  H   0.80224
 1197  H   0.83261
 1198  C   1.06891   0.72904   0.73588   0.69367
 1199  O   1.88762   1.66806   1.47576   1.69053
 1200  O   1.86929   1.80160   1.44522   1.76162
 1201  C   1.08839   0.81940   0.79643   0.74972
 1202  O   1.88719   1.28661   1.79708   1.57295
 1203  N   1.56620   1.29202   1.17012   1.53780
 1204  H   0.68069
 1205  C   1.07981   1.01815   0.91636   0.95427
 1206  H   0.84092
 1207  C   1.05590   1.08081   1.20342   0.95988
 1208  H   0.81532
 1209  H   0.81679
 1210  C   1.07361   0.97066   0.97774   0.97084
 1211  C   1.08856   1.03617   1.04165   1.01333
 1212  H   0.84214
 1213  C   1.08469   0.99224   1.05629   1.01727
 1214  H   0.85918
 1215  C   1.08696   1.05795   0.99206   1.02817
 1216  H   0.84928
 1217  C   1.08965   1.03658   1.03385   0.98349
 1218  H   0.83043
 1219  C   1.08692   0.98593   1.05947   1.02046
 1220  H   0.84321
 1221  C   1.09020   0.80371   0.77429   0.76266
 1222  O   1.88495   1.44612   1.56366   1.71419
 1223  N   1.53952   1.41492   1.43553   1.13544
 1224  H   0.67960
 1225  C   1.06885   0.98359   1.07098   0.98567
 1226  H   0.81060
 1227  H   0.80358
 1228  C   1.07990   0.82919   0.77436   0.70153
 1229  O   1.87531   1.84492   1.33273   1.62672
 1230  N   1.55637   1.29275   1.23496   1.44047
 1231  H   0.66836
 1232  C   1.07731   0.89977   1.03766   0.96183
 1233  H   0.84807
 1234  C   1.06840   1.11135   0.94621   1.18095
 1235  H   0.82879
 1236  H   0.83405
 1237  C   1.05186   1.03182   0.96355   1.00797
 1238  H   0.86258
 1239  C   1.05596   1.16840   1.06340   1.16660
 1240  H   0.85592
 1241  H   0.84485
 1242  H   0.85320
 1243  C   1.05580   1.17219   1.18848   1.04733
 1244  H   0.84477
 1245  H   0.83756
 1246  H   0.85965
 1247  C   1.09722   0.86613   0.76846   0.73993
 1248  O   1.88376   1.31157   1.77523   1.56782
 1249  N   1.58478   1.28140   1.24113   1.52980
 1250  H   0.66426
 1251  C   1.06947   0.95970   0.99010   0.96179
 1252  H   0.82523
 1253  C   1.05735   1.14345   1.09958   1.16273
 1254  H   0.86476
 1255  H   0.82087
 1256  H   0.81178
 1257  C   1.07876   0.84933   0.76934   0.78355
 1258  O   1.89120   1.45709   1.52815   1.62169
 1259  N   1.54611   1.31343   1.54418   1.15320
 1260  H   0.70129
 1261  C   1.06027   0.93090   1.14797   1.09018
 1262  H   0.81713
 1263  H   0.85556
 1264  H   0.84428
 1265  H   0.88508
 1266  C   1.09726   0.75868   0.82379   0.87003
 1267  O   1.89047   1.46982   1.31226   1.86348
 1268  N   1.54395   1.50190   1.35461   1.15121
 1269  H   0.69038
 1270  C   1.07226   1.10772   0.96304   0.82240
 1271  H   0.80429
 1272  C   1.05789   1.09579   1.03311   1.13984
 1273  H   0.84190
 1274  H   0.83433
 1275  C   1.06451   0.97624   0.94772   0.96747
 1276  C   1.08136   1.01330   0.99071   1.05585
 1277  H   0.84803
 1278  C   1.08031   1.03477   1.02500   0.99558
 1279  H   0.85599
 1280  C   1.07824   1.00839   1.05275   1.02419
 1281  H   0.86159
 1282  C   1.07775   1.02509   1.00531   1.04998
 1283  H   0.86385
 1284  C   1.08041   1.06043   1.02590   0.99986
 1285  H   0.84807
 1286  C   1.08362   0.77251   0.80333   0.81745
 1287  O   1.89081   1.50319   1.62937   1.48177
 1288  N   1.53977   1.18237   1.36158   1.44857
 1289  H   0.67960
 1290  C   1.05561   1.13022   0.97849   0.99587
 1291  H   0.83574
 1292  H   0.79613
 1293  C   1.07755   0.78690   0.75824   0.80377
 1294  O   1.87317   1.54319   1.38718   1.83710
 1295  N   1.53548   1.40905   1.37199   1.18534
 1296  H   0.67068
 1297  C   1.07394   1.00535   1.18573   0.89152
 1298  H   0.81581
 1299  H   0.81509
 1300  C   1.07886   0.79691   0.76152   0.81357
 1301  O   1.89012   1.46387   1.49148   1.68863
 1302  N   1.56540   1.46193   1.16888   1.27050
 1303  C   1.06823   1.06581   0.87152   1.05081
 1304  H   0.84444
 1305  H   0.84955
 1306  C   1.05755   1.03559   1.14274   1.06228
 1307  H   0.83918
 1308  H   0.79925
 1309  C   1.05941   1.09367   0.99337   1.15170
 1310  H   0.85787
 1311  H   0.83305
 1312  C   1.07057   1.04402   0.98692   0.88041
 1313  H   0.83397
 1314  C   1.09120   0.79093   0.79441   0.82246
 1315  O   1.89224   1.35938   1.36149   1.85862
 1316  N   1.54613   1.41373   1.50935   1.12660
 1317  H   0.68446
 1318  C   1.07858   1.04442   1.12156   0.88170
 1319  H   0.80289
 1320  H   0.82139
 1321  C   1.08602   0.82888   0.73299   0.78199
 1322  O   1.88601   1.69513   1.71565   1.32119
 1323  N   1.55275   1.23502   1.41493   1.34508
 1324  H   0.68896
 1325  C   1.07641   0.85820   1.06008   0.98290
 1326  H   0.82242
 1327  C   1.05904   1.17700   1.07703   0.96472
 1328  H   0.84764
 1329  H   0.82226
 1330  C   1.05756   1.11767   1.05735   1.05045
 1331  H   0.83379
 1332  H   0.87465
 1333  C   1.06935   1.10913   1.11909   0.74598
 1334  H   0.83570
 1335  H   0.80754
 1336  N   1.53394   1.59280   1.27305   1.10596
 1337  H   0.67039
 1338  C   0.97633   0.84039   0.80653   0.79171
 1339  N   1.49889   1.55642   1.25207   1.24776
 1340  H   0.64575
 1341  H   0.65737
 1342  N   1.50167   1.59059   1.35405   1.14273
 1343  H   0.66388
 1344  H   0.65940
 1345  C   1.08043   0.77720   0.78176   0.84607
 1346  O   1.89146   1.44906   1.63062   1.54519
 1347  N   1.54300   1.55351   1.19473   1.24202
 1348  H   0.68949
 1349  C   1.09102   1.00824   1.01060   0.91163
 1350  H   0.80220
 1351  C   1.08433   0.92363   0.92594   0.88627
 1352  H   0.85308
 1353  C   1.05836   1.10744   1.12665   1.20037
 1354  H   0.82487
 1355  H   0.82794
 1356  H   0.84177
 1357  O   1.84281   1.59285   1.64048   1.56061
 1358  H   0.61068
 1359  C   1.07949   0.81667   0.79808   0.77183
 1360  O   1.88896   1.52502   1.78938   1.35931
 1361  N   1.55421   1.33139   1.29555   1.37728
 1362  H   0.64965
 1363  C   1.07362   0.97539   0.92475   1.00620
 1364  H   0.83141
 1365  C   1.05688   1.09273   1.06713   1.08544
 1366  H   0.85233
 1367  H   0.83302
 1368  C   1.05800   0.97116   0.97354   1.08203
 1369  C   1.08221   0.97437   1.07568   0.99614
 1370  H   0.85046
 1371  C   1.08561   1.08191   0.99761   0.99895
 1372  H   0.80194
 1373  C   1.06928   0.83337   0.89465   0.86657
 1374  O   1.84086   1.46268   1.54481   1.69906
 1375  H   0.59692
 1376  C   1.07113   0.99627   1.09194   1.08618
 1377  H   0.85655
 1378  C   1.07715   1.05261   1.00385   1.02198
 1379  H   0.87720
 1380  C   1.08214   0.79276   0.75808   0.82378
 1381  O   1.88957   1.35982   1.51360   1.81069
 1382  N   1.55302   1.20477   1.61356   1.14977
 1383  H   0.65919
 1384  C   1.08593   1.09423   1.05467   0.83742
 1385  H   0.85034
 1386  C   1.08021   0.85385   0.86991   1.00672
 1387  H   0.87845
 1388  C   1.05616   1.09575   1.13638   1.19008
 1389  H   0.83152
 1390  H   0.85680
 1391  H   0.85277
 1392  O   1.84994   1.30843   1.76199   1.64738
 1393  H   0.59850
 1394  C   1.08836   0.86141   0.77090   0.80825
 1395  O   1.89646   1.23678   1.65221   1.60001
 1396  N   1.54729   1.20474   1.30487   1.52002
 1397  H   0.69417
 1398  C   1.06726   1.01961   1.01435   1.05270
 1399  H   0.88151
 1400  H   0.84565
 1401  C   1.06950   0.85135   0.75650   0.78821
 1402  O   1.89318   1.66771   1.37951   1.51083
 1403  N   1.55716   1.14889   1.53505   1.33747
 1404  H   0.68953
 1405  C   1.07233   0.82227   0.97434   1.14229
 1406  H   0.83232
 1407  C   1.05674   1.16621   1.00904   1.02497
 1408  H   0.84902
 1409  H   0.82916
 1410  C   1.06025   1.20434   0.98202   1.16507
 1411  H   0.83329
 1412  H   0.83634
 1413  C   1.06194   0.73927   0.72219   0.73457
 1414  O   1.89254   1.42704   1.79709   1.60831
 1415  O   1.88357   1.53646   1.58124   1.81846
 1416  C   1.09500   0.76508   0.86745   0.74666
 1417  O   1.88693   1.65428   1.65758   1.40368
 1418  N   1.54800   1.31565   1.19214   1.48960
 1419  H   0.67072
 1420  C   1.07023   1.04628   0.86944   1.02939
 1421  H   0.87216
 1422  C   1.05523   1.03149   1.04075   0.95566
 1423  H   0.82435
 1424  C   1.05493   1.16594   1.03705   1.20502
 1425  H   0.86139
 1426  H   0.84225
 1427  H   0.82094
 1428  C   1.05353   1.16761   1.15524   1.07932
 1429  H   0.85300
 1430  H   0.84019
 1431  H   0.87322
 1432  C   1.07375   0.79259   0.74895   0.84324
 1433  O   1.88978   1.32163   1.58647   1.74359
 1434  N   1.53884   1.27329   1.49349   1.21312
 1435  H   0.68187
 1436  C   1.07438   1.00900   1.04587   0.86615
 1437  H   0.84253
 1438  C   1.06134   1.03054   1.01669   0.97989
 1439  H   0.83890
 1440  C   1.05313   1.18223   1.10086   1.10938
 1441  H   0.83369
 1442  H   0.84923
 1443  H   0.86534
 1444  C   1.05653   1.19161   1.16298   1.04362
 1445  H   0.86023
 1446  H   0.83752
 1447  H   0.83029
 1448  C   1.08288   0.80948   0.79857   0.76219
 1449  O   1.88745   1.79498   1.44291   1.43305
 1450  N   1.53609   1.24328   1.43813   1.31514
 1451  H   0.68466
 1452  C   1.07801   0.90347   0.96814   1.14032
 1453  H   0.81635
 1454  C   1.07867   0.93155   0.84239   0.98954
 1455  H   0.87300
 1456  C   1.05580   1.10021   1.13389   1.18143
 1457  H   0.84046
 1458  H   0.82843
 1459  H   0.84571
 1460  O   1.85210   1.45300   1.47024   1.77147
 1461  H   0.66530
 1462  C   1.07540   0.76581   0.82455   0.81391
 1463  O   1.88678   1.45214   1.86777   1.32179
 1464  N   1.53709   1.58494   1.12330   1.28800
 1465  H   0.68736
 1466  C   1.05221   1.16002   0.87637   1.13273
 1467  H   0.82185
 1468  H   0.85378
 1469  H   0.86649
 1470  H   0.86941
 1471  C   1.10170   0.76405   0.81166   0.89549
 1472  O   1.88717   1.42777   1.33489   1.87150
 1473  N   1.55038   1.52604   1.36327   1.14161
 1474  H   0.68706
 1475  C   1.07789   1.09021   1.02976   0.79381
 1476  H   0.81278
 1477  C   1.05936   1.13184   1.00672   1.09909
 1478  H   0.81541
 1479  H   0.82668
 1480  C   1.06830   0.97617   0.98747   0.99812
 1481  C   1.08104   0.99056   1.01963   1.00409
 1482  H   0.84574
 1483  C   1.07571   1.10232   1.04764   1.06498
 1484  H   0.82541
 1485  C   1.07251   0.88882   0.88816   0.88302
 1486  O   1.84179   1.33077   1.60072   1.72828
 1487  H   0.65419
 1488  C   1.07532   0.98835   1.10173   1.09816
 1489  H   0.83416
 1490  C   1.08720   1.07437   0.98113   0.97182
 1491  H   0.84047
 1492  C   1.08206   0.80330   0.78082   0.81044
 1493  O   1.89296   1.77888   1.64279   1.23684
 1494  N   1.53511   1.26479   1.54064   1.17731
 1495  H   0.69010
 1496  C   1.05804   0.92161   1.08510   1.15572
 1497  H   0.83221
 1498  H   0.85588
 1499  H   0.85039
 1500  H   0.86604
 1501  C   1.10295   0.82979   0.87807   0.75944
 1502  O   1.89043   1.34353   1.83485   1.42345
 1503  N   1.55421   1.37691   1.20575   1.47141
 1504  H   0.69156
 1505  C   1.07915   0.97639   0.84377   1.12483
 1506  H   0.81497
 1507  C   1.05898   0.98059   1.00851   1.06724
 1508  H   0.86948
 1509  C   1.05192   1.15799   1.05404   1.18189
 1510  H   0.83691
 1511  H   0.85315
 1512  H   0.83599
 1513  C   1.04804   1.00389   1.12236   1.09041
 1514  H   0.86246
 1515  H   0.86416
 1516  C   1.04889   1.11937   1.13522   1.13885
 1517  H   0.85374
 1518  H   0.85502
 1519  H   0.85446
 1520  C   1.07245   0.86802   0.76266   0.76276
 1521  O   1.88565   1.52999   1.48953   1.60558
 1522  N   1.54258   1.16429   1.44811   1.40509
 1523  H   0.70097
 1524  C   1.06814   0.88848   1.14585   1.09856
 1525  H   0.85018
 1526  H   0.86163
 1527  H   0.82835
 1528  H   0.86164
 1529  C   1.10307   0.85218   0.75664   0.84828
 1530  O   1.89241   1.78024   1.57459   1.31044
 1531  N   1.53870   1.27073   1.41799   1.30160
 1532  H   0.68201
 1533  C   1.05774   0.87981   1.04698   1.01919
 1534  H   0.82186
 1535  C   1.06045   1.03591   1.11721   1.10591
 1536  H   0.84134
 1537  H   0.84435
 1538  C   1.04470   0.99060   0.96534   1.05973
 1539  H   0.87912
 1540  C   1.05433   1.16083   1.06595   1.18125
 1541  H   0.84381
 1542  H   0.84582
 1543  H   0.85090
 1544  C   1.05258   1.12498   1.16978   1.11022
 1545  H   0.85988
 1546  H   0.84661
 1547  H   0.84038
 1548  C   1.08013   0.74537   0.87763   0.77771
 1549  O   1.88739   1.52399   1.42224   1.71285
 1550  N   1.54028   1.59620   1.20257   1.20230
 1551  H   0.67696
 1552  C   1.06916   1.04545   0.93910   0.93151
 1553  H   0.81939
 1554  C   1.05603   1.16685   1.05731   1.01506
 1555  H   0.83545
 1556  H   0.83279
 1557  C   1.05726   1.12824   1.10551   1.02220
 1558  H   0.84020
 1559  H   0.82508
 1560  C   1.06740   1.16601   0.93382   0.90764
 1561  H   0.81994
 1562  H   0.83901
 1563  N   1.52347   1.14350   1.42291   1.39786
 1564  H   0.66742
 1565  C   0.99026   0.79771   0.80743   0.81356
 1566  N   1.51442   1.10612   1.46168   1.48371
 1567  H   0.64464
 1568  H   0.65964
 1569  N   1.50486   1.23288   1.41687   1.42963
 1570  H   0.66029
 1571  H   0.65749
 1572  C   1.07518   0.86246   0.78992   0.77473
 1573  O   1.88873   1.59499   1.59604   1.52450
 1574  N   1.53734   1.18927   1.25260   1.49217
 1575  H   0.67776
 1576  C   1.08127   0.82463   1.13533   1.04195
 1577  H   0.82557
 1578  C   1.05983   1.15855   1.08163   0.99912
 1579  H   0.84429
 1580  H   0.84919
 1581  C   1.04879   1.08015   0.97266   0.94643
 1582  H   0.87071
 1583  C   1.05534   1.15957   1.15734   1.09083
 1584  H   0.86749
 1585  H   0.86643
 1586  H   0.85362
 1587  C   1.05672   1.16310   1.09165   1.15418
 1588  H   0.84622
 1589  H   0.86985
 1590  H   0.84186
 1591  C   1.07460   0.75888   0.76294   0.73174
 1592  O   1.88866   1.43283   1.84411   1.57946
 1593  O   1.89198   1.52729   1.54899   1.77912

 **********************
 *                    *
 * JOB ENDED NORMALLY *
 *                    *
 **********************



 TOTAL JOB TIME:          2435.32 SECONDS

 == MOPAC DONE ==
