 *******************************************************************************
 **                                                                           **
 **                              MOPAC v23.2.2                                **
 **                                                                           **
 *******************************************************************************
 **          Digital Object Identifier (DOI): 10.5281/zenodo.6511958          **
 **    Visit the DOI location for information on how to cite this program.    **
 *******************************************************************************

                              PM7 CALCULATION RESULTS

 *******************************************************************************
 *  CALCULATION DONE: (MAX THREADS = 24)             Thu Jan 22 14:45:56 2026  *
 *  PM7        - The PM7 Hamiltonian to be used
 *
 *
 *
 *                 CHARGE ON SYSTEM = +2
 *
 *
 *
 *  EPS=1      - USE ANDREAS KLAMT'S COSMO IMPLICIT SOLVATION MODEL
 *  XYZ        - CARTESIAN COORDINATE SYSTEM TO BE USED
 *  1SCF       - DO 1 SCF AND THEN STOP 
 *  T=         - A TIME OF 172800.0 SECONDS REQUESTED
 *  DUMP=N     - RESTART FILE WRITTEN EVERY 7200.0 SECONDS REQUESTED
 *******************************************************************************
PM7 1SCF XYZ CHARGE=2 EPS=1


   ATOM   CHEMICAL          X               Y               Z
  NUMBER   SYMBOL      (ANGSTROMS)     (ANGSTROMS)     (ANGSTROMS)

     1       H         71.69100000  *  165.23700000  * -45.36000000  *
     2       C         70.72700000  *  165.64400000  * -45.02500000  *
     3       O         70.67100000  *  166.69300000  * -44.40000000  *
     4       N         69.64800000  *  164.94600000  * -45.35400000  *
     5       H         69.74300000  *  164.08600000  * -45.86500000  *
     6       C         68.31800000  *  165.37700000  * -44.95100000  *
     7       H         68.30400000  *  166.44500000  * -44.75000000  *
     8       C         67.27900000  *  165.08100000  * -46.05800000  *
     9       H         67.27200000  *  164.02200000  * -46.29800000  *
    10       C         65.89200000  *  165.46600000  * -45.59200000  *
    11       H         65.46400000  *  166.22900000  * -46.24500000  *
    12       H         65.23700000  *  164.60600000  * -45.62700000  *
    13       H         65.87600000  *  165.89500000  * -44.58400000  *
    14       C         67.63700000  *  165.85600000  * -47.31700000  *
    15       H         68.59400000  *  165.52900000  * -47.70800000  *
    16       H         66.87900000  *  165.66900000  * -48.07700000  *
    17       H         67.68800000  *  166.92100000  * -47.10100000  *
    18       C         67.91500000  *  164.66400000  * -43.65700000  *
    19       O         67.55300000  *  165.30600000  * -42.67600000  *
    20       N         67.98400000  *  163.33800000  * -43.65800000  *
    21       H         68.28400000  *  162.85200000  * -44.48600000  *
    22       C         67.62300000  *  162.54400000  * -42.48700000  *
    23       H         67.90600000  *  163.07600000  * -41.58100000  *
    24       C         66.12800000  *  162.23500000  * -42.45900000  *
    25       H         65.92600000  *  161.47400000  * -43.20900000  *
    26       H         65.88500000  *  161.80700000  * -41.48800000  *
    27       C         65.21300000  *  163.39800000  * -42.74000000  *
    28       H         65.33100000  *  164.15700000  * -41.96400000  *
    29       H         65.45900000  *  163.81400000  * -43.69700000  *
    30       C         63.76600000  *  162.97200000  * -42.82400000  *
    31       O         63.44700000  *  162.11400000  * -43.67900000  *
    32       O         62.94800000  *  163.49400000  * -42.03400000  *
    33       C         68.34700000  *  161.22200000  * -42.57700000  *
    34       O         68.73000000  *  160.78800000  * -43.66100000  *
    35       N         68.52400000  *  160.57500000  * -41.43500000  *
    36       H         68.03000000  *  160.89100000  * -40.60600000  *
    37       C         69.17300000  *  159.28200000  * -41.42100000  *
    38       H         69.95100000  *  159.22100000  * -42.17800000  *
    39       C         69.75600000  *  159.01000000  * -40.03200000  *
    40       H         70.21900000  *  159.94300000  * -39.71800000  *
    41       H         68.96300000  *  158.79100000  * -39.31600000  *
    42       C         70.79800000  *  157.89600000  * -39.98300000  *
    43       H         70.31100000  *  156.94100000  * -40.17400000  *
    44       H         71.53800000  *  158.07300000  * -40.76900000  *
    45       C         71.50100000  *  157.83200000  * -38.61800000  *
    46       H         70.74900000  *  157.59000000  * -37.86000000  *
    47       H         72.23100000  *  157.01800000  * -38.63800000  *
    48       C         72.18600000  *  159.16200000  * -38.26900000  *
    49       H         72.83200000  *  159.42500000  * -39.10900000  *
    50       H         71.41200000  *  159.93100000  * -38.15600000  *
    51       N         73.00000000  *  159.10500000  * -37.02500000  *
    52       H         73.70000000  *  158.37000000  * -37.07400000  *
    53       H         73.43800000  *  159.98800000  * -36.79300000  *
    54       H         72.39100000  *  158.85400000  * -36.25100000  *
    55       C         68.06200000  *  158.28700000  * -41.74800000  *
    56       O         67.16300000  *  158.08100000  * -40.94600000  *
    57       N         68.06900000  *  157.75200000  * -42.96900000  *
    58       H         68.88000000  *  157.93200000  * -43.54000000  *
    59       C         67.10000000  *  156.75500000  * -43.45200000  *
    60       H         66.11000000  *  157.21500000  * -43.47600000  *
    61       C         67.47000000  *  156.30800000  * -44.88600000  *
    62       H         68.54900000  *  156.38900000  * -45.01100000  *
    63       C         67.09000000  *  154.86000000  * -45.20500000  *
    64       H         66.04000000  *  154.68300000  * -44.98100000  *
    65       H         67.29400000  *  154.66300000  * -46.25200000  *
    66       H         67.69700000  *  154.17200000  * -44.62100000  *
    67       C         66.80700000  *  157.26600000  * -45.88600000  *
    68       H         65.72600000  *  157.13600000  * -45.85700000  *
    69       H         67.02900000  *  158.27200000  * -45.54900000  *
    70       C         67.29500000  *  157.11200000  * -47.33400000  *
    71       H         66.88800000  *  156.20900000  * -47.78200000  *
    72       H         66.96300000  *  157.96300000  * -47.92400000  *
    73       H         68.38100000  *  157.06800000  * -47.36500000  *
    74       C         66.99800000  *  155.57700000  * -42.48600000  *
    75       O         65.89700000  *  155.17700000  * -42.10200000  *
    76       N         68.14500000  *  155.01500000  * -42.10600000  *
    77       H         69.02400000  *  155.39000000  * -42.44600000  *
    78       C         68.18100000  *  153.84300000  * -41.25100000  *
    79       H         67.74800000  *  154.10200000  * -40.28400000  *
    80       H         67.57700000  *  153.05300000  * -41.69700000  *
    81       C         69.58000000  *  153.29900000  * -41.01500000  *
    82       O         70.58700000  *  153.78000000  * -41.54200000  *
    83       N         69.60400000  *  152.27100000  * -40.18300000  *
    84       H         68.72000000  *  151.92800000  * -39.83300000  *
    85       C         70.80300000  *  151.68400000  * -39.60800000  *
    86       H         71.65200000  *  152.34900000  * -39.77300000  *
    87       C         70.58400000  *  151.55400000  * -38.09200000  *
    88       H         69.74400000  *  150.88700000  * -37.89800000  *
    89       H         71.48500000  *  151.13600000  * -37.66200000  *
    90       C         70.33100000  *  152.91500000  * -37.41700000  *
    91       H         71.16600000  *  153.58100000  * -37.64900000  *
    92       H         69.42600000  *  153.36800000  * -37.82700000  *
    93       C         70.16400000  *  152.79300000  * -35.89500000  *
    94       O         69.26100000  *  152.05800000  * -35.43200000  *
    95       O         70.90100000  *  153.47600000  * -35.14800000  *
    96       C         71.08700000  *  150.35500000  * -40.32500000  *
    97       O         70.43900000  *  149.33700000  * -40.06800000  *
    98       N         71.95900000  *  150.41300000  * -41.33600000  *
    99       H         72.51900000  *  151.24900000  * -41.44900000  *
   100       C         72.05200000  *  149.40800000  * -42.39600000  *
   101       H         71.04700000  *  149.08900000  * -42.67000000  *
   102       H         72.49700000  *  149.88300000  * -43.27100000  *
   103       C         72.87300000  *  148.15700000  * -42.06500000  *
   104       O         73.36000000  *  147.95800000  * -40.95500000  *
   105       N         73.06100000  *  147.31400000  * -43.08300000  *
   106       H         72.60900000  *  147.52100000  * -43.96500000  *
   107       C         73.86800000  *  146.07600000  * -43.05400000  *
   108       H         73.61000000  *  145.49900000  * -42.16500000  *
   109       C         73.54900000  *  145.22100000  * -44.29300000  *
   110       H         74.29000000  *  144.42800000  * -44.40300000  *
   111       C         72.16700000  *  144.58800000  * -44.19100000  *
   112       H         71.39700000  *  145.35900000  * -44.13700000  *
   113       H         71.99600000  *  143.96200000  * -45.06600000  *
   114       H         72.13500000  *  143.95800000  * -43.30300000  *
   115       O         73.57000000  *  146.05100000  * -45.42800000  *
   116       H         73.10900000  *  145.58400000  * -46.16300000  *
   117       C         75.38300000  *  146.30400000  * -43.02100000  *
   118       O         76.09200000  *  145.47200000  * -42.46200000  *
   119       N         75.86700000  *  147.42300000  * -43.57800000  *
   120       H         75.20000000  *  147.99500000  * -44.07000000  *
   121       C         77.29900000  *  147.74300000  * -43.75100000  *
   122       H         77.90100000  *  147.07200000  * -43.13600000  *
   123       C         77.69400000  *  147.52400000  * -45.22400000  *
   124       H         77.08800000  *  148.17200000  * -45.85800000  *
   125       H         78.73600000  *  147.81300000  * -45.36200000  *
   126       C         77.57300000  *  146.09700000  * -45.70200000  *
   127       C         78.54500000  *  145.16100000  * -45.31000000  *
   128       H         79.38500000  *  145.47200000  * -44.70000000  *
   129       C         78.41300000  *  143.81700000  * -45.69000000  *
   130       H         79.15700000  *  143.10500000  * -45.37200000  *
   131       C         77.30200000  *  143.40800000  * -46.46000000  *
   132       O         77.13300000  *  142.09800000  * -46.76100000  *
   133       H         77.68100000  *  141.55100000  * -46.16800000  *
   134       C         76.34800000  *  144.35400000  * -46.88400000  *
   135       H         75.49200000  *  144.03900000  * -47.46100000  *
   136       C         76.49300000  *  145.70200000  * -46.51300000  *
   137       H         75.75300000  *  146.42600000  * -46.82200000  *
   138       C         77.69000000  *  149.17600000  * -43.34500000  *
   139       O         78.82900000  *  149.58000000  * -43.57000000  *
   140       N         76.77500000  *  149.96300000  * -42.77300000  *
   141       H         75.86900000  *  149.58400000  * -42.54100000  *
   142       C         77.00000000  *  151.37800000  * -42.46100000  *
   143       H         77.55300000  *  151.46300000  * -41.52900000  *
   144       H         77.60600000  *  151.82200000  * -43.24200000  *
   145       C         75.69500000  *  152.16300000  * -42.32800000  *
   146       O         74.63500000  *  151.56700000  * -42.11800000  *
   147       N         75.75500000  *  153.49500000  * -42.44900000  *
   148       H         76.58800000  *  153.89400000  * -42.85900000  *
   149       C         74.59200000  *  154.32600000  * -42.21200000  *
   150       H         73.82600000  *  153.78000000  * -41.65800000  *
   151       C         74.95900000  *  155.54800000  * -41.37000000  *
   152       H         75.70700000  *  156.13900000  * -41.89300000  *
   153       C         73.73100000  *  156.40900000  * -41.13300000  *
   154       H         72.94300000  *  155.80300000  * -40.68200000  *
   155       H         73.98600000  *  157.21200000  * -40.45000000  *
   156       H         73.36800000  *  156.84900000  * -42.06500000  *
   157       C         75.54500000  *  155.09600000  * -40.05300000  *
   158       H         76.46000000  *  154.52800000  * -40.19800000  *
   159       H         75.77700000  *  155.95300000  * -39.42300000  *
   160       H         74.80500000  *  154.48400000  * -39.53200000  *
   161       C         74.01900000  *  154.79200000  * -43.53700000  *
   162       O         74.76100000  *  155.18400000  * -44.43700000  *
   163       N         72.69900000  *  154.65600000  * -43.67400000  *
   164       H         72.15900000  *  154.32400000  * -42.88100000  *
   165       C         71.94700000  *  155.12100000  * -44.83900000  *
   166       H         72.62900000  *  155.20500000  * -45.68200000  *
   167       C         70.82300000  *  154.14800000  * -45.24100000  *
   168       H         69.98000000  *  154.26900000  * -44.56300000  *
   169       C         70.36400000  *  154.46900000  * -46.67000000  *
   170       H         71.18700000  *  154.33600000  * -47.37100000  *
   171       H         69.54800000  *  153.80700000  * -46.95600000  *
   172       H         70.01200000  *  155.49600000  * -46.73600000  *
   173       C         71.26400000  *  152.68200000  * -45.17300000  *
   174       H         72.21900000  *  152.57000000  * -45.67400000  *
   175       H         71.36300000  *  152.37500000  * -44.13100000  *
   176       H         70.51900000  *  152.04300000  * -45.64700000  *
   177       C         71.36700000  *  156.49300000  * -44.53000000  *
   178       O         70.64900000  *  156.64000000  * -43.53700000  *
   179       N         71.62500000  *  157.49000000  * -45.37400000  *
   180       H         72.23900000  *  157.32200000  * -46.16900000  *
   181       C         71.01800000  *  158.79600000  * -45.21900000  *
   182       H         70.37900000  *  158.84300000  * -44.33800000  *
   183       C         72.10000000  *  159.86100000  * -45.06900000  *
   184       H         72.79900000  *  159.78100000  * -45.90500000  *
   185       H         71.63400000  *  160.84400000  * -45.14300000  *
   186       C         72.87100000  *  159.84300000  * -43.76800000  *
   187       C         72.34700000  *  160.43100000  * -42.61900000  *
   188       H         71.37700000  *  160.90600000  * -42.66800000  *
   189       C         73.06400000  *  160.45200000  * -41.42500000  *
   190       H         72.63300000  *  160.94600000  * -40.56800000  *
   191       C         74.33000000  *  159.87400000  * -41.37100000  *
   192       O         75.04700000  *  159.90100000  * -40.18700000  *
   193       H         74.69700000  *  160.54100000  * -39.56800000  *
   194       C         74.87500000  *  159.27800000  * -42.50300000  *
   195       H         75.78500000  *  158.71900000  * -42.41900000  *
   196       C         74.14000000  *  159.26700000  * -43.69600000  *
   197       H         74.51800000  *  158.73300000  * -44.56500000  *
   198       C         70.16700000  *  159.17400000  * -46.42900000  *
   199       O         70.41800000  *  158.72400000  * -47.55600000  *
   200       N         69.02400000  *  159.82600000  * -46.20900000  *
   201       H         68.83500000  *  160.12600000  * -45.25900000  *
   202       C         68.29800000  *  160.51900000  * -47.27500000  *
   203       H         68.27600000  *  159.91800000  * -48.18600000  *
   204       C         66.86100000  *  160.87900000  * -46.84100000  *
   205       H         66.31900000  *  159.97200000  * -46.59100000  *
   206       H         66.89300000  *  161.51100000  * -45.95200000  *
   207       C         66.06800000  *  161.59200000  * -47.94900000  *
   208       H         66.55400000  *  162.53500000  * -48.20600000  *
   209       H         66.04600000  *  160.95700000  * -48.83500000  *
   210       C         64.63000000  *  161.87600000  * -47.48400000  *
   211       H         64.16800000  *  160.94700000  * -47.14500000  *
   212       H         64.65800000  *  162.57400000  * -46.64700000  *
   213       C         63.79500000  *  162.46600000  * -48.62900000  *
   214       H         64.31700000  *  163.34100000  * -49.02900000  *
   215       H         63.72700000  *  161.71800000  * -49.42700000  *
   216       N         62.43200000  *  162.85500000  * -48.17800000  *
   217       H         62.46900000  *  163.56800000  * -47.46200000  *
   218       H         61.88700000  *  163.23200000  * -48.94200000  *
   219       H         61.92500000  *  162.06800000  * -47.79900000  *
   220       C         69.12500000  *  161.75900000  * -47.50300000  *
   221       O         69.37800000  *  162.48400000  * -46.54300000  *
   222       N         69.55500000  *  162.00600000  * -48.72500000  *
   223       H         69.34400000  *  161.34200000  * -49.46700000  *
   224       C         70.34900000  *  163.18200000  * -49.01700000  *
   225       H         70.22500000  *  163.93500000  * -48.24000000  *
   226       C         71.81400000  *  162.79200000  * -49.07000000  *
   227       H         71.97800000  *  162.06700000  * -49.86400000  *
   228       H         72.42900000  *  163.67700000  * -49.23900000  *
   229       H         72.10500000  *  162.33200000  * -48.12600000  *
   230       C         69.94400000  *  163.83800000  * -50.32200000  *
   231       O         69.22100000  *  163.25100000  * -51.12800000  *
   232       N         70.40700000  *  165.06400000  * -50.52400000  *
   233       H         70.93200000  *  165.53000000  * -49.79600000  *
   234       C         70.10800000  *  165.77900000  * -51.74600000  *
   235       H         69.54100000  *  165.15900000  * -52.44400000  *
   236       H         69.52200000  *  166.69100000  * -51.53000000  *
   237       H         71.05900000  *  166.04700000  * -52.23900000  *
   238       H         68.08600000  *  164.80700000  * -56.55000000  *
   239       C         68.21200000  *  164.39600000  * -55.53600000  *
   240       O         69.28600000  *  164.50800000  * -54.94200000  *
   241       N         67.13500000  *  163.82300000  * -55.01100000  *
   242       H         66.34000000  *  163.66800000  * -55.61500000  *
   243       C         67.13600000  *  163.21200000  * -53.68800000  *
   244       H         67.86300000  *  163.70700000  * -53.05000000  *
   245       C         65.75500000  *  163.32300000  * -53.02900000  *
   246       H         64.97700000  *  163.06900000  * -53.75000000  *
   247       C         65.64800000  *  162.36600000  * -51.85200000  *
   248       H         66.47200000  *  162.51800000  * -51.15200000  *
   249       H         64.69700000  *  162.53800000  * -51.34700000  *
   250       H         65.65200000  *  161.33900000  * -52.20000000  *
   251       C         65.54000000  *  164.75000000  * -52.56600000  *
   252       H         65.62600000  *  165.42400000  * -53.41600000  *
   253       H         64.53500000  *  164.85100000  * -52.15900000  *
   254       H         66.28400000  *  165.00300000  * -51.81000000  *
   255       C         67.52600000  *  161.76000000  * -53.84700000  *
   256       O         66.97900000  *  161.02800000  * -54.68200000  *
   257       N         68.49600000  *  161.34900000  * -53.04800000  *
   258       H         68.91100000  *  161.99700000  * -52.39100000  *
   259       C         69.01100000  *  159.99200000  * -53.10200000  *
   260       H         68.34600000  *  159.34100000  * -53.67900000  *
   261       C         70.37400000  *  159.97400000  * -53.81600000  *
   262       H         70.77500000  *  158.96500000  * -53.87500000  *
   263       C         70.21400000  *  160.50700000  * -55.21300000  *
   264       H         69.95700000  *  161.56600000  * -55.19000000  *
   265       H         71.15100000  *  160.39100000  * -55.75600000  *
   266       H         69.44200000  *  159.95000000  * -55.73600000  *
   267       C         71.37900000  *  160.85000000  * -53.05700000  *
   268       H         71.56500000  *  160.44500000  * -52.06400000  *
   269       H         72.31500000  *  160.84900000  * -53.61300000  *
   270       H         71.03600000  *  161.88400000  * -52.98400000  *
   271       C         69.19200000  *  159.37200000  * -51.72900000  *
   272       O         69.02000000  *  160.03600000  * -50.68600000  *
   273       N         69.39000000  *  158.06000000  * -51.70900000  *
   274       H         69.46800000  *  157.57000000  * -52.59600000  *
   275       C         69.75900000  *  157.31700000  * -50.52000000  *
   276       H         69.47300000  *  157.87200000  * -49.62900000  *
   277       C         69.00000000  *  155.99700000  * -50.50500000  *
   278       H         69.21900000  *  155.44100000  * -51.41500000  *
   279       H         69.29700000  *  155.40800000  * -49.63700000  *
   280       H         67.93100000  *  156.19900000  * -50.45300000  *
   281       C         71.27800000  *  157.13800000  * -50.53800000  *
   282       O         71.81600000  *  156.45600000  * -51.41700000  *
   283       N         71.97000000  *  157.79100000  * -49.60300000  *
   284       H         71.44500000  *  158.28300000  * -48.88900000  *
   285       C         73.41300000  *  157.73400000  * -49.53500000  *
   286       H         73.80300000  *  157.43200000  * -50.50200000  *
   287       C         73.96100000  *  159.11400000  * -49.18200000  *
   288       H         73.49200000  *  159.84000000  * -49.85100000  *
   289       H         73.62800000  *  159.35800000  * -48.16900000  *
   290       C         75.47300000  *  159.31600000  * -49.26600000  *
   291       H         75.96900000  *  158.63700000  * -48.57100000  *
   292       C         75.94900000  *  159.02000000  * -50.68400000  *
   293       H         75.44100000  *  159.71800000  * -51.34800000  *
   294       H         77.02400000  *  159.18800000  * -50.76300000  *
   295       H         75.74700000  *  157.98700000  * -50.96800000  *
   296       C         75.80400000  *  160.74000000  * -48.87900000  *
   297       H         75.43700000  *  160.94600000  * -47.87600000  *
   298       H         76.88200000  *  160.87900000  * -48.92200000  *
   299       H         75.32000000  *  161.42900000  * -49.57600000  *
   300       C         73.82100000  *  156.71600000  * -48.48500000  *
   301       O         73.39600000  *  156.78100000  * -47.33400000  *
   302       N         74.64300000  *  155.75000000  * -48.88700000  *
   303       H         74.88100000  *  155.73100000  * -49.87600000  *
   304       C         75.13600000  *  154.63800000  * -48.06500000  *
   305       H         74.61500000  *  154.61100000  * -47.10600000  *
   306       C         74.86800000  *  153.33100000  * -48.84600000  *
   307       H         74.43500000  *  153.57700000  * -49.81600000  *
   308       H         75.80400000  *  152.80500000  * -49.04200000  *
   309       C         73.89600000  *  152.35300000  * -48.18800000  *
   310       H         73.03500000  *  152.89600000  * -47.80000000  *
   311       H         73.54200000  *  151.68800000  * -48.97500000  *
   312       C         74.56000000  *  151.52200000  * -47.07500000  *
   313       H         75.54200000  *  151.17600000  * -47.40400000  *
   314       H         74.70600000  *  152.15600000  * -46.19700000  *
   315       C         73.70700000  *  150.30200000  * -46.68700000  *
   316       H         74.16300000  *  149.82900000  * -45.81100000  *
   317       H         72.70900000  *  150.64500000  * -46.39300000  *
   318       N         73.60200000  *  149.31700000  * -47.80100000  *
   319       H         74.50600000  *  148.96300000  * -48.08700000  *
   320       H         73.02600000  *  148.50600000  * -47.54200000  *
   321       H         73.15000000  *  149.72400000  * -48.61100000  *
   322       C         76.62600000  *  154.85000000  * -47.79900000  *
   323       O         77.41900000  *  154.68600000  * -48.71700000  *
   324       N         77.01700000  *  155.22600000  * -46.58100000  *
   325       H         76.29800000  *  155.26800000  * -45.86500000  *
   326       C         78.42200000  *  155.28900000  * -46.15900000  *
   327       H         79.06600000  *  155.59300000  * -46.98900000  *
   328       C         78.56700000  *  156.26000000  * -44.97900000  *
   329       H         78.02700000  *  155.87500000  * -44.10900000  *
   330       H         79.62500000  *  156.33900000  * -44.73000000  *
   331       C         78.01500000  *  157.64300000  * -45.34000000  *
   332       H         78.45100000  *  157.95800000  * -46.27300000  *
   333       H         76.93600000  *  157.57500000  * -45.50000000  *
   334       C         78.25100000  *  158.72500000  * -44.27900000  *
   335       H         77.97800000  *  159.68000000  * -44.73200000  *
   336       H         77.56000000  *  158.53300000  * -43.46900000  *
   337       C         79.67700000  *  158.85000000  * -43.70900000  *
   338       H         80.38400000  *  158.36300000  * -44.39700000  *
   339       H         79.95000000  *  159.91100000  * -43.68600000  *
   340       N         79.78800000  *  158.26900000  * -42.33500000  *
   341       H         79.63700000  *  157.26100000  * -42.37000000  *
   342       H         80.69600000  *  158.42600000  * -41.93200000  *
   343       H         79.10400000  *  158.64600000  * -41.70100000  *
   344       C         78.82300000  *  153.89100000  * -45.72900000  *
   345       O         78.09100000  *  153.31500000  * -44.93700000  *
   346       N         79.90700000  *  153.32000000  * -46.24700000  *
   347       H         80.40500000  *  153.76400000  * -47.01000000  *
   348       C         80.34300000  *  152.02200000  * -45.76800000  *
   349       H         79.49500000  *  151.49800000  * -45.35900000  *
   350       C         80.94400000  *  151.18600000  * -46.89500000  *
   351       H         81.78600000  *  151.78200000  * -47.16900000  *
   352       C         81.42400000  *  149.85200000  * -46.34500000  *
   353       H         80.65600000  *  149.35200000  * -45.75200000  *
   354       H         81.67900000  *  149.19900000  * -47.17900000  *
   355       H         82.34500000  *  149.95700000  * -45.76100000  *
   356       C         79.89700000  *  150.97600000  * -47.99700000  *
   357       H         79.60200000  *  151.87000000  * -48.50000000  *
   358       H         80.28300000  *  150.30500000  * -48.75000000  *
   359       C         78.59100000  *  150.36100000  * -47.52600000  *
   360       H         78.17700000  *  150.90100000  * -46.69000000  *
   361       H         77.89400000  *  150.33700000  * -48.36300000  *
   362       H         78.77100000  *  149.33300000  * -47.20900000  *
   363       C         81.33300000  *  152.07100000  * -44.61400000  *
   364       O         82.16700000  *  152.98000000  * -44.51900000  *
   365       N         81.21100000  *  151.07100000  * -43.74300000  *
   366       H         80.50300000  *  150.36100000  * -43.92800000  *
   367       C         82.04400000  *  150.90200000  * -42.55200000  *
   368       H         81.47500000  *  151.18100000  * -41.66300000  *
   369       H         82.35800000  *  149.86100000  * -42.45900000  *
   370       H         82.94700000  *  151.51400000  * -42.62000000  *
   371       H         81.25700000  *  144.04600000  * -57.89900000  *
   372       C         80.50000000  *  144.84100000  * -57.88800000  *
   373       O         79.71500000  *  144.99000000  * -58.82400000  *
   374       N         80.49900000  *  145.60300000  * -56.79700000  *
   375       H         81.28000000  *  145.52500000  * -56.16600000  *
   376       C         79.57000000  *  146.70600000  * -56.61200000  *
   377       H         78.57500000  *  146.34400000  * -56.42300000  *
   378       C         80.00500000  *  147.61000000  * -55.44200000  *
   379       H         80.89800000  *  148.18000000  * -55.68500000  *
   380       C         78.90600000  *  148.60800000  * -55.12500000  *
   381       H         77.92000000  *  148.14100000  * -55.17600000  *
   382       H         79.04500000  *  148.98700000  * -54.11600000  *
   383       H         78.93800000  *  149.43600000  * -55.83300000  *
   384       C         80.32100000  *  146.76200000  * -54.20900000  *
   385       H         81.19200000  *  146.13400000  * -54.40600000  *
   386       H         80.59400000  *  147.42200000  * -53.38900000  *
   387       C         79.18400000  *  145.87900000  * -53.76500000  *
   388       H         78.77800000  *  145.31100000  * -54.59400000  *
   389       H         79.50900000  *  145.12200000  * -53.06500000  *
   390       H         78.38800000  *  146.48300000  * -53.33500000  *
   391       C         79.54300000  *  147.54500000  * -57.87900000  *
   392       O         78.48200000  *  147.77900000  * -58.45100000  *
   393       N         80.72300000  *  147.98900000  * -58.30900000  *
   394       H         81.55800000  *  147.70100000  * -57.81200000  *
   395       C         80.85900000  *  148.80400000  * -59.51100000  *
   396       H         80.33900000  *  149.74600000  * -59.38600000  *
   397       H         81.92800000  *  148.98500000  * -59.72900000  *
   398       H         80.37800000  *  148.32200000  * -60.38100000  *
   399       H         78.96400000  *  146.08700000  * -61.65600000  *
   400       C         77.87300000  *  146.08700000  * -61.51600000  *
   401       O         77.11500000  *  145.89500000  * -62.46400000  *
   402       N         77.44600000  *  146.31800000  * -60.28000000  *
   403       H         78.13400000  *  146.42500000  * -59.54900000  *
   404       C         76.02800000  *  146.35200000  * -59.94500000  *
   405       H         75.53300000  *  145.47600000  * -60.35900000  *
   406       C         75.84100000  *  146.37400000  * -58.43100000  *
   407       H         76.20500000  *  147.30400000  * -58.01800000  *
   408       H         74.76300000  *  146.35700000  * -58.24200000  *
   409       C         76.47200000  *  145.22200000  * -57.65900000  *
   410       H         77.55000000  *  145.23900000  * -57.74900000  *
   411       C         76.08000000  *  145.34100000  * -56.19200000  *
   412       H         74.99900000  *  145.23000000  * -56.07700000  *
   413       H         76.57300000  *  144.55300000  * -55.62900000  *
   414       H         76.38500000  *  146.30900000  * -55.80100000  *
   415       C         75.99600000  *  143.89000000  * -58.23600000  *
   416       H         76.41500000  *  143.73000000  * -59.22900000  *
   417       H         76.32800000  *  143.07800000  * -57.59100000  *
   418       H         74.90500000  *  143.87400000  * -58.30500000  *
   419       C         75.32200000  *  147.55900000  * -60.54800000  *
   420       O         74.09500000  *  147.56800000  * -60.66200000  *
   421       N         76.08400000  *  148.63100000  * -60.82900000  *
   422       H         77.08200000  *  148.53500000  * -60.67700000  *
   423       C         75.60100000  *  149.83300000  * -61.53400000  *
   424       H         74.83700000  *  150.33500000  * -60.94100000  *
   425       H         76.43800000  *  150.53300000  * -61.75900000  *
   426       H         75.13800000  *  149.54900000  * -62.49200000  *
   427       H         62.79000000  *  145.77200000  * -59.27600000  *
   428       C         63.71000000  *  145.72000000  * -58.67500000  *
   429       O         63.77900000  *  145.02200000  * -57.66400000  *
   430       N         64.72400000  *  146.45200000  * -59.11400000  *
   431       H         64.63800000  *  147.05100000  * -59.92700000  *
   432       C         65.97100000  *  146.53500000  * -58.38100000  *
   433       H         65.88400000  *  146.09200000  * -57.38600000  *
   434       C         67.11600000  *  145.87700000  * -59.11400000  *
   435       H         67.33600000  *  146.42600000  * -60.03000000  *
   436       C         68.35100000  *  145.87800000  * -58.21400000  *
   437       H         68.14700000  *  145.31400000  * -57.31800000  *
   438       H         69.21000000  *  145.44500000  * -58.72400000  *
   439       H         68.64100000  *  146.89000000  * -57.94500000  *
   440       C         66.72800000  *  144.44400000  * -59.47800000  *
   441       H         66.54900000  *  143.87300000  * -58.56400000  *
   442       H         65.81500000  *  144.42400000  * -60.06800000  *
   443       C         67.77400000  *  143.72700000  * -60.29600000  *
   444       H         68.68300000  *  143.57700000  * -59.72200000  *
   445       H         67.37700000  *  142.75300000  * -60.59800000  *
   446       H         68.02300000  *  144.31300000  * -61.18000000  *
   447       C         66.29500000  *  148.01000000  * -58.22000000  *
   448       O         66.21200000  *  148.78000000  * -59.18400000  *
   449       N         66.56200000  *  148.43400000  * -56.98200000  *
   450       H         66.62800000  *  147.74800000  * -56.23500000  *
   451       C         66.90200000  *  149.82800000  * -56.67000000  *
   452       H         66.08300000  *  150.47200000  * -56.98300000  *
   453       C         67.10800000  *  150.00800000  * -55.15800000  *
   454       H         67.89100000  *  149.32900000  * -54.81700000  *
   455       C         67.50000000  *  151.43800000  * -54.76800000  *
   456       H         66.67500000  *  152.11900000  * -54.96400000  *
   457       H         67.73700000  *  151.47300000  * -53.70500000  *
   458       H         68.37300000  *  151.76600000  * -55.32600000  *
   459       C         65.81300000  *  149.68800000  * -54.41000000  *
   460       H         65.52800000  *  148.64900000  * -54.54500000  *
   461       H         65.97600000  *  149.85600000  * -53.35400000  *
   462       H         65.00800000  *  150.32700000  * -54.76500000  *
   463       C         68.15800000  *  150.21900000  * -57.44500000  *
   464       O         69.19100000  *  149.55600000  * -57.32100000  *
   465       N         68.08000000  *  151.28300000  * -58.25100000  *
   466       H         67.22500000  *  151.80400000  * -58.24500000  *
   467       C         69.18900000  *  151.69800000  * -59.08000000  *
   468       H         69.52500000  *  150.81900000  * -59.63900000  *
   469       C         68.73700000  *  152.76800000  * -60.08300000  *
   470       H         67.83400000  *  152.41100000  * -60.57900000  *
   471       H         68.47700000  *  153.68100000  * -59.53700000  *
   472       C         69.79100000  *  153.06900000  * -61.13100000  *
   473       H         70.72100000  *  153.35000000  * -60.64200000  *
   474       H         69.97400000  *  152.16800000  * -61.71600000  *
   475       C         69.35100000  *  154.17900000  * -62.08100000  *
   476       H         68.50200000  *  153.81400000  * -62.66100000  *
   477       H         69.02300000  *  155.05600000  * -61.52200000  *
   478       C         70.49800000  *  154.55900000  * -63.02400000  *
   479       H         71.33900000  *  154.89000000  * -62.40800000  *
   480       H         70.81900000  *  153.66100000  * -63.56600000  *
   481       N         70.11800000  *  155.62600000  * -63.99700000  *
   482       H         69.74700000  *  156.41600000  * -63.48300000  *
   483       H         70.92600000  *  155.93300000  * -64.52500000  *
   484       H         69.41500000  *  155.27800000  * -64.63600000  *
   485       C         70.36000000  *  152.21400000  * -58.25300000  *
   486       O         70.19400000  *  153.07400000  * -57.38700000  *
   487       N         71.53700000  *  151.64500000  * -58.50700000  *
   488       H         71.59600000  *  150.90400000  * -59.18600000  *
   489       C         72.75000000  *  152.07400000  * -57.83600000  *
   490       H         72.53800000  *  152.52600000  * -56.87100000  *
   491       C         73.72700000  *  150.91100000  * -57.67000000  *
   492       H         73.31500000  *  150.22100000  * -56.93700000  *
   493       H         73.77900000  *  150.36900000  * -58.62000000  *
   494       C         75.16700000  *  151.27300000  * -57.28800000  *
   495       H         75.65500000  *  151.80300000  * -58.10000000  *
   496       C         75.18300000  *  152.16500000  * -56.05900000  *
   497       H         74.60800000  *  151.72100000  * -55.25200000  *
   498       H         76.21000000  *  152.29600000  * -55.73500000  *
   499       H         74.78900000  *  153.14000000  * -56.31200000  *
   500       C         75.93300000  *  149.99400000  * -57.01300000  *
   501       H         75.98300000  *  149.42100000  * -57.93300000  *
   502       H         76.94600000  *  150.24200000  * -56.71200000  *
   503       H         75.43500000  *  149.41000000  * -56.23200000  *
   504       C         73.31900000  *  153.11300000  * -58.79500000  *
   505       O         73.76900000  *  152.77900000  * -59.89700000  *
   506       N         73.26700000  *  154.36900000  * -58.37800000  *
   507       H         72.92600000  *  154.57000000  * -57.44900000  *
   508       C         73.73400000  *  155.46600000  * -59.19700000  *
   509       H         73.47500000  *  155.26500000  * -60.23600000  *
   510       C         73.02500000  *  156.74200000  * -58.76000000  *
   511       H         73.45000000  *  157.06300000  * -57.80900000  *
   512       H         73.23600000  *  157.53300000  * -59.48700000  *
   513       C         71.51300000  *  156.60300000  * -58.58700000  *
   514       H         71.27400000  *  155.80900000  * -57.88500000  *
   515       C         70.97400000  *  157.88000000  * -58.01900000  *
   516       H         71.37000000  *  158.74600000  * -58.56000000  *
   517       H         69.88800000  *  157.89100000  * -58.09300000  *
   518       H         71.22100000  *  157.96000000  * -56.96600000  *
   519       C         70.85100000  *  156.29000000  * -59.92300000  *
   520       H         71.28300000  *  155.39700000  * -60.34200000  *
   521       H         69.78900000  *  156.14400000  * -59.75100000  *
   522       H         71.00300000  *  157.12700000  * -60.60700000  *
   523       C         75.24500000  *  155.67800000  * -59.15800000  *
   524       O         75.83900000  *  156.04700000  * -60.17600000  *
   525       N         75.86200000  *  155.44600000  * -57.99600000  *
   526       H         75.29500000  *  155.17900000  * -57.20400000  *
   527       C         77.30800000  *  155.64700000  * -57.82900000  *
   528       H         77.80800000  *  155.40400000  * -58.76600000  *
   529       C         77.60000000  *  157.11700000  * -57.51900000  *
   530       H         76.91700000  *  157.54400000  * -56.80300000  *
   531       H         78.58200000  *  157.17000000  * -57.04800000  *
   532       C         77.65600000  *  157.97500000  * -58.75600000  *
   533       O         78.67800000  *  157.91700000  * -59.48300000  *
   534       O         76.67400000  *  158.70400000  * -59.00000000  *
   535       C         77.97900000  *  154.81700000  * -56.73400000  *
   536       O         77.37100000  *  154.52100000  * -55.70400000  *
   537       N         79.24700000  *  154.47700000  * -56.96600000  *
   538       H         79.69800000  *  154.82400000  * -57.79800000  *
   539       C         80.06100000  *  153.73800000  * -56.00300000  *
   540       H         79.55400000  *  153.69900000  * -55.05200000  *
   541       C         80.36600000  *  152.29800000  * -56.50400000  *
   542       H         79.42700000  *  151.75200000  * -56.56200000  *
   543       C         80.98100000  *  152.34300000  * -57.88400000  *
   544       H         82.06600000  *  152.43300000  * -57.82100000  *
   545       H         80.74600000  *  151.41400000  * -58.37900000  *
   546       H         80.59600000  *  153.14500000  * -58.51000000  *
   547       C         81.29900000  *  151.58800000  * -55.53900000  *
   548       H         80.81100000  *  151.54900000  * -54.57200000  *
   549       H         81.47300000  *  150.57200000  * -55.87800000  *
   550       H         82.25900000  *  152.09200000  * -55.44900000  *
   551       C         81.36500000  *  154.53600000  * -55.81000000  *
   552       O         82.27000000  *  154.48900000  * -56.64700000  *
   553       N         81.45200000  *  155.28200000  * -54.71000000  *
   554       H         80.67600000  *  155.30400000  * -54.06400000  *
   555       C         82.62100000  *  156.11100000  * -54.44300000  *
   556       H         83.20500000  *  156.21800000  * -55.35800000  *
   557       H         82.32200000  *  157.12800000  * -54.14500000  *
   558       H         83.29700000  *  155.73900000  * -53.65600000  *
   559       H         84.58000000  *  155.17100000  * -47.07300000  *
   560       C         84.22500000  *  154.98400000  * -48.09100000  *
   561       O         84.63900000  *  155.65900000  * -49.04200000  *
   562       N         83.35800000  *  153.99100000  * -48.22200000  *
   563       H         83.13600000  *  153.42800000  * -47.41700000  *
   564       C         82.77600000  *  153.65100000  * -49.50600000  *
   565       H         83.37000000  *  154.04700000  * -50.31700000  *
   566       C         82.71900000  *  152.14000000  * -49.66000000  *
   567       H         83.74000000  *  151.87500000  * -49.95700000  *
   568       H         82.64400000  *  151.54600000  * -48.78400000  *
   569       C         81.82600000  *  151.61900000  * -50.77900000  *
   570       H         80.79100000  *  151.88400000  * -50.58700000  *
   571       C         82.25800000  *  152.23100000  * -52.09200000  *
   572       H         83.31100000  *  152.49100000  * -52.08900000  *
   573       H         82.09300000  *  151.51300000  * -52.88400000  *
   574       H         81.65400000  *  153.10900000  * -52.31200000  *
   575       C         81.89900000  *  150.09400000  * -50.82200000  *
   576       H         81.91300000  *  149.66400000  * -49.82700000  *
   577       H         81.05200000  *  149.70600000  * -51.39100000  *
   578       H         82.82500000  *  149.80300000  * -51.32100000  *
   579       C         81.36700000  *  154.23200000  * -49.54800000  *
   580       O         80.51800000  *  153.85700000  * -48.74500000  *
   581       N         81.13100000  *  155.16100000  * -50.46700000  *
   582       H         81.84500000  *  155.34800000  * -51.16200000  *
   583       C         79.82200000  *  155.78100000  * -50.60800000  *
   584       H         79.27400000  *  155.67000000  * -49.68700000  *
   585       C         79.96700000  *  157.27800000  * -50.86800000  *
   586       H         80.42300000  *  157.50400000  * -51.79700000  *
   587       H         78.95400000  *  157.66400000  * -50.98900000  *
   588       C         80.57600000  *  158.04300000  * -49.72300000  *
   589       C         79.79300000  *  158.48000000  * -48.65600000  *
   590       H         78.73500000  *  158.25400000  * -48.66900000  *
   591       C         80.35600000  *  159.18600000  * -47.59400000  *
   592       H         79.75300000  *  159.56200000  * -46.79700000  *
   593       C         81.71600000  *  159.45200000  * -47.58700000  *
   594       O         82.27600000  *  160.12500000  * -46.52100000  *
   595       H         83.20600000  *  160.30800000  * -46.74500000  *
   596       C         82.51400000  *  159.02600000  * -48.63700000  *
   597       H         83.58200000  *  159.23300000  * -48.65000000  *
   598       C         81.94100000  *  158.32800000  * -49.69800000  *
   599       H         82.57400000  *  157.98100000  * -50.50200000  *
   600       C         79.04800000  *  155.15800000  * -51.76500000  *
   601       O         79.54400000  *  155.08000000  * -52.88800000  *
   602       N         77.86200000  *  154.62600000  * -51.49500000  *
   603       H         77.53500000  *  154.65100000  * -50.53500000  *
   604       C         76.98200000  *  154.05500000  * -52.51200000  *
   605       H         77.50600000  *  154.00100000  * -53.46000000  *
   606       C         76.55200000  *  152.62300000  * -52.14900000  *
   607       H         75.86900000  *  152.66700000  * -51.31100000  *
   608       H         76.00500000  *  152.21500000  * -53.00000000  *
   609       C         77.69100000  *  151.65600000  * -51.78700000  *
   610       H         78.21000000  *  152.01100000  * -50.89600000  *
   611       C         77.12500000  *  150.26800000  * -51.49300000  *
   612       H         76.62500000  *  149.86900000  * -52.37800000  *
   613       H         77.93300000  *  149.59300000  * -51.20600000  *
   614       H         76.41400000  *  150.32600000  * -50.67100000  *
   615       C         78.69200000  *  151.52700000  * -52.92900000  *
   616       H         79.20700000  *  152.47300000  * -53.07100000  *
   617       H         79.43100000  *  150.76900000  * -52.68100000  *
   618       H         78.17500000  *  151.25400000  * -53.85000000  *
   619       C         75.78600000  *  154.98600000  * -52.67200000  *
   620       O         75.10400000  *  155.26500000  * -51.68300000  *
   621       N         75.54700000  *  155.50800000  * -53.87800000  *
   622       H         76.14500000  *  155.25500000  * -54.66000000  *
   623       C         74.40900000  *  156.37500000  * -54.09400000  *
   624       H         73.97600000  *  156.70200000  * -53.15000000  *
   625       C         74.83400000  *  157.63700000  * -54.81800000  *
   626       H         75.25500000  *  157.34500000  * -55.76600000  *
   627       C         73.61400000  *  158.52200000  * -55.10900000  *
   628       H         73.11700000  *  158.76900000  * -54.17500000  *
   629       H         73.94100000  *  159.43100000  * -55.61500000  *
   630       H         72.91600000  *  158.00900000  * -55.76200000  *
   631       C         75.84000000  *  158.38200000  * -53.94900000  *
   632       H         75.28100000  *  158.78400000  * -53.13000000  *
   633       H         76.65600000  *  157.75800000  * -53.60500000  *
   634       H         76.26100000  *  159.20400000  * -54.52500000  *
   635       C         73.31400000  *  155.64400000  * -54.85300000  *
   636       O         73.49500000  *  155.22100000  * -55.99400000  *
   637       N         72.21200000  *  155.38200000  * -54.15600000  *
   638       H         72.14700000  *  155.73900000  * -53.20600000  *
   639       C         71.03600000  *  154.69800000  * -54.68300000  *
   640       H         71.28300000  *  154.22700000  * -55.63000000  *
   641       C         70.59100000  *  153.61000000  * -53.70000000  *
   642       H         70.46500000  *  154.05500000  * -52.71400000  *
   643       H         69.61300000  *  153.24600000  * -54.01000000  *
   644       C         71.52600000  *  152.42100000  * -53.58600000  *
   645       C         71.39000000  *  151.33100000  * -54.46800000  *
   646       H         70.64900000  *  151.35600000  * -55.25300000  *
   647       C         72.21000000  *  150.19700000  * -54.32600000  *
   648       H         72.09500000  *  149.35800000  * -54.99900000  *
   649       C         73.17400000  *  150.15100000  * -53.30500000  *
   650       H         73.80500000  *  149.27800000  * -53.19500000  *
   651       C         73.31700000  *  151.24000000  * -52.42800000  *
   652       H         74.05100000  *  151.19800000  * -51.63700000  *
   653       C         72.50000000  *  152.37700000  * -52.57000000  *
   654       H         72.60900000  *  153.21000000  * -51.88800000  *
   655       C         69.89500000  *  155.69100000  * -54.92100000  *
   656       O         69.78700000  *  156.70400000  * -54.22700000  *
   657       N         69.01900000  *  155.40600000  * -55.88700000  *
   658       H         69.16100000  *  154.56300000  * -56.43400000  *
   659       C         67.73300000  *  156.11200000  * -55.98200000  *
   660       H         67.95200000  *  157.15900000  * -56.19700000  *
   661       C         66.88300000  *  155.57700000  * -57.15100000  *
   662       H         66.01600000  *  156.22900000  * -57.25600000  *
   663       H         67.46400000  *  155.62900000  * -58.07300000  *
   664       C         66.40600000  *  154.13500000  * -56.93800000  *
   665       H         67.28200000  *  153.48600000  * -56.90800000  *
   666       H         65.90200000  *  154.06600000  * -55.97800000  *
   667       C         65.42200000  *  153.63300000  * -58.00100000  *
   668       O         64.53100000  *  154.38400000  * -58.46100000  *
   669       O         65.49300000  *  152.43400000  * -58.34400000  *
   670       C         66.96400000  *  156.06500000  * -54.64100000  *
   671       O         67.01900000  *  155.07800000  * -53.89900000  *
   672       N         66.24800000  *  157.14000000  * -54.31500000  *
   673       H         66.21100000  *  157.92100000  * -54.95500000  *
   674       C         65.37300000  *  157.18500000  * -53.14400000  *
   675       H         65.83600000  *  156.62300000  * -52.33000000  *
   676       C         65.23700000  *  158.64000000  * -52.68600000  *
   677       H         66.23400000  *  159.03600000  * -52.49000000  *
   678       H         64.79300000  *  159.23100000  * -53.48800000  *
   679       C         64.40900000  *  158.80400000  * -51.43000000  *
   680       C         63.06500000  *  159.21700000  * -51.50300000  *
   681       H         62.61400000  *  159.43500000  * -52.46200000  *
   682       C         62.30100000  *  159.33700000  * -50.32900000  *
   683       H         61.26800000  *  159.65100000  * -50.38800000  *
   684       C         62.87600000  *  159.04300000  * -49.08200000  *
   685       H         62.28600000  *  159.12600000  * -48.17800000  *
   686       C         64.22200000  *  158.64400000  * -49.00900000  *
   687       H         64.67300000  *  158.42900000  * -48.05400000  *
   688       C         64.98600000  *  158.51900000  * -50.18000000  *
   689       H         66.01700000  *  158.19800000  * -50.12100000  *
   690       C         64.00100000  *  156.55700000  * -53.44000000  *
   691       O         63.40300000  *  156.83100000  * -54.48500000  *
   692       N         63.47900000  *  155.76400000  * -52.50100000  *
   693       H         64.03400000  *  155.57500000  * -51.67400000  *
   694       C         62.09700000  *  155.26800000  * -52.49600000  *
   695       H         61.51900000  *  155.77100000  * -53.27400000  *
   696       C         62.05100000  *  153.75400000  * -52.75000000  *
   697       H         62.77200000  *  153.26700000  * -52.09500000  *
   698       H         61.05800000  *  153.40400000  * -52.46700000  *
   699       C         62.31000000  *  153.36600000  * -54.21800000  *
   700       H         62.07400000  *  154.20500000  * -54.87200000  *
   701       C         63.76500000  *  152.95600000  * -54.42600000  *
   702       H         64.00700000  *  152.11600000  * -53.77800000  *
   703       H         63.92700000  *  152.67900000  * -55.46600000  *
   704       H         64.42200000  *  153.78800000  * -54.17800000  *
   705       C         61.42900000  *  152.18600000  * -54.63300000  *
   706       H         60.38000000  *  152.43300000  * -54.47400000  *
   707       H         61.57300000  *  151.97300000  * -55.69000000  *
   708       H         61.68000000  *  151.30200000  * -54.04800000  *
   709       C         61.43900000  *  155.60000000  * -51.15700000  *
   710       O         62.06300000  *  155.51300000  * -50.10500000  *
   711       N         60.18100000  *  156.02400000  * -51.18400000  *
   712       H         59.72300000  *  156.10600000  * -52.08300000  *
   713       C         59.56400000  *  156.72700000  * -50.05700000  *
   714       H         60.28500000  *  157.45700000  * -49.68600000  *
   715       C         58.35500000  *  157.51100000  * -50.57500000  *
   716       H         57.56300000  *  156.80900000  * -50.83300000  *
   717       H         58.00800000  *  158.15500000  * -49.76900000  *
   718       C         58.63300000  *  158.37200000  * -51.78800000  *
   719       N         58.77400000  *  157.90500000  * -53.10000000  *
   720       C         59.02800000  *  158.99000000  * -53.85300000  *
   721       H         59.19100000  *  158.97900000  * -54.92500000  *
   722       N         59.05100000  *  160.09400000  * -53.08800000  *
   723       H         59.21700000  *  161.03700000  * -53.42800000  *
   724       C         58.80300000  *  159.72600000  * -51.78300000  *
   725       H         58.75500000  *  160.37700000  * -50.91900000  *
   726       C         59.20300000  *  155.84800000  * -48.84300000  *
   727       O         58.96400000  *  156.39300000  * -47.76500000  *
   728       N         59.17100000  *  154.51500000  * -48.98200000  *
   729       H         59.37900000  *  154.12200000  * -49.89100000  *
   730       C         58.85600000  *  153.57500000  * -47.89500000  *
   731       H         59.28500000  *  153.96900000  * -46.97500000  *
   732       C         57.32500000  *  153.51700000  * -47.71100000  *
   733       H         56.96800000  *  154.52700000  * -47.50300000  *
   734       H         56.85300000  *  153.17900000  * -48.63400000  *
   735       C         56.88500000  *  152.60300000  * -46.55600000  *
   736       H         56.75600000  *  151.59200000  * -46.93400000  *
   737       H         57.65800000  *  152.59500000  * -45.78900000  *
   738       C         55.59400000  *  153.06000000  * -45.88800000  *
   739       O         55.60000000  *  153.66800000  * -44.83000000  *
   740       N         54.44200000  *  152.79000000  * -46.46200000  *
   741       H         53.61400000  *  153.11200000  * -45.98500000  *
   742       H         54.40900000  *  152.31700000  * -47.34700000  *
   743       C         59.48600000  *  152.18300000  * -48.11800000  *
   744       O         59.68200000  *  151.75900000  * -49.25600000  *
   745       N         59.79500000  *  151.46600000  * -47.03100000  *
   746       H         59.59200000  *  151.85900000  * -46.12700000  *
   747       C         60.21600000  *  150.05700000  * -47.05700000  *
   748       H         60.52600000  *  149.81700000  * -48.07000000  *
   749       C         61.45200000  *  149.82500000  * -46.16400000  *
   750       H         61.84800000  *  148.83800000  * -46.40800000  *
   751       H         62.21500000  *  150.55600000  * -46.43800000  *
   752       C         61.22100000  *  149.87800000  * -44.64600000  *
   753       O         60.26300000  *  149.24500000  * -44.15600000  *
   754       O         62.03800000  *  150.51300000  * -43.94000000  *
   755       C         59.05100000  *  149.10800000  * -46.71800000  *
   756       O         58.01800000  *  149.52700000  * -46.17400000  *
   757       N         59.19100000  *  147.81900000  * -47.04800000  *
   758       H         60.03800000  *  147.50900000  * -47.52500000  *
   759       C         58.10100000  *  146.88000000  * -46.84100000  *
   760       H         57.21800000  *  147.32500000  * -47.29300000  *
   761       C         58.41200000  *  145.57700000  * -47.59200000  *
   762       H         58.61300000  *  145.80400000  * -48.64400000  *
   763       H         59.28800000  *  145.12100000  * -47.15800000  *
   764       C         57.28700000  *  144.52700000  * -47.51900000  *
   765       H         57.05600000  *  144.28000000  * -46.48700000  *
   766       C         56.00700000  *  145.04400000  * -48.19600000  *
   767       H         56.23500000  *  145.37800000  * -49.20200000  *
   768       H         55.26800000  *  144.24500000  * -48.23100000  *
   769       H         55.59500000  *  145.87000000  * -47.62900000  *
   770       C         57.76800000  *  143.24900000  * -48.17500000  *
   771       H         58.61500000  *  142.85400000  * -47.62000000  *
   772       H         56.97300000  *  142.50400000  * -48.17100000  *
   773       H         58.06400000  *  143.44500000  * -49.20700000  *
   774       C         57.76400000  *  146.61300000  * -45.36900000  *
   775       O         56.60900000  *  146.37600000  * -45.03000000  *
   776       N         58.75700000  *  146.67700000  * -44.48800000  *
   777       H         59.64000000  *  147.08600000  * -44.79000000  *
   778       C         58.49100000  *  146.46700000  * -43.07300000  *
   779       H         57.97900000  *  145.55100000  * -42.87200000  *
   780       C         59.78200000  *  146.47800000  * -42.25400000  *
   781       H         60.44800000  *  145.70000000  * -42.62000000  *
   782       H         60.28600000  *  147.44000000  * -42.35600000  *
   783       C         59.49200000  *  146.22900000  * -40.76500000  *
   784       H         58.94200000  *  147.08300000  * -40.37400000  *
   785       H         58.87100000  *  145.33200000  * -40.67600000  *
   786       C         60.74500000  *  146.03800000  * -39.93500000  *
   787       H         61.36100000  *  145.25900000  * -40.37900000  *
   788       H         61.30800000  *  146.97100000  * -39.90700000  *
   789       C         60.37600000  *  145.60700000  * -38.51700000  *
   790       H         59.98500000  *  144.58900000  * -38.53700000  *
   791       H         61.27900000  *  145.61300000  * -37.90300000  *
   792       N         59.34600000  *  146.53100000  * -37.94700000  *
   793       H         58.44600000  *  146.48100000  * -38.44300000  *
   794       H         59.09000000  *  146.27800000  * -37.00400000  *
   795       H         59.61300000  *  147.50600000  * -37.97800000  *
   796       C         57.55800000  *  147.53800000  * -42.51200000  *
   797       O         56.61300000  *  147.23400000  * -41.78300000  *
   798       N         57.83700000  *  148.81000000  * -42.81000000  *
   799       H         58.66600000  *  148.99400000  * -43.38100000  *
   800       C         57.02200000  *  149.93900000  * -42.34800000  *
   801       H         56.92400000  *  149.87400000  * -41.26200000  *
   802       C         57.73300000  *  151.25700000  * -42.69200000  *
   803       H         58.76600000  *  151.20000000  * -42.34400000  *
   804       H         57.74100000  *  151.39500000  * -43.77300000  *
   805       C         57.06000000  *  152.46200000  * -42.01600000  *
   806       H         56.04500000  *  152.57100000  * -42.39700000  *
   807       H         57.00900000  *  152.28400000  * -40.94100000  *
   808       C         57.84300000  *  153.75900000  * -42.26800000  *
   809       H         58.84100000  *  153.66300000  * -41.83700000  *
   810       H         57.93300000  *  153.93000000  * -43.34200000  *
   811       C         57.10900000  *  154.93700000  * -41.61500000  *
   812       H         56.11700000  *  155.02400000  * -42.06700000  *
   813       H         56.97300000  *  154.71700000  * -40.55200000  *
   814       N         57.85400000  *  156.21300000  * -41.77300000  *
   815       H         57.97200000  *  156.45300000  * -42.74600000  *
   816       H         57.36100000  *  156.97400000  * -41.33000000  *
   817       H         58.76800000  *  156.15800000  * -41.34800000  *
   818       C         55.61200000  *  149.84500000  * -42.92800000  *
   819       O         54.63800000  *  150.09100000  * -42.22200000  *
   820       N         55.49500000  *  149.42600000  * -44.18900000  *
   821       H         56.35000000  *  149.26300000  * -44.71300000  *
   822       C         54.20500000  *  149.26000000  * -44.85200000  *
   823       H         53.62600000  *  150.17500000  * -44.72500000  *
   824       C         54.41000000  *  148.98800000  * -46.34000000  *
   825       H         54.98900000  *  149.80200000  * -46.77700000  *
   826       H         55.00200000  *  148.07700000  * -46.45200000  *
   827       C         53.12600000  *  148.85300000  * -47.10800000  *
   828       C         52.23100000  *  149.92200000  * -47.18600000  *
   829       H         52.46300000  *  150.85600000  * -46.69900000  *
   830       C         51.01500000  *  149.79500000  * -47.88400000  *
   831       H         50.32500000  *  150.62800000  * -47.91800000  *
   832       C         50.69700000  *  148.60300000  * -48.50200000  *
   833       H         49.75200000  *  148.50200000  * -49.02000000  *
   834       C         51.58700000  *  147.52100000  * -48.43200000  *
   835       H         51.33500000  *  146.58300000  * -48.91200000  *
   836       C         52.79500000  *  147.65400000  * -47.73300000  *
   837       H         53.46700000  *  146.81000000  * -47.67200000  *
   838       C         53.37400000  *  148.12200000  * -44.22700000  *
   839       O         52.16900000  *  148.28300000  * -44.00900000  *
   840       N         54.01600000  *  146.98100000  * -43.96600000  *
   841       H         55.00900000  *  146.90600000  * -44.17900000  *
   842       C         53.33800000  *  145.83600000  * -43.34100000  *
   843       H         52.47600000  *  145.52800000  * -43.93400000  *
   844       C         54.29200000  *  144.65000000  * -43.17000000  *
   845       H         55.15800000  *  145.02700000  * -42.63600000  *
   846       H         53.80700000  *  143.89200000  * -42.54700000  *
   847       C         54.73100000  *  144.00400000  * -44.46100000  *
   848       H         53.84700000  *  143.61400000  * -44.95900000  *
   849       H         55.19200000  *  144.69400000  * -45.15000000  *
   850       S         55.79700000  *  142.58100000  * -44.15400000  *
   851       C         57.05400000  *  143.29200000  * -43.18800000  *
   852       H         56.67800000  *  143.65800000  * -42.23500000  *
   853       H         57.80700000  *  142.53400000  * -42.98200000  *
   854       H         57.44300000  *  144.07900000  * -43.80900000  *
   855       C         52.84400000  *  146.26000000  * -41.95900000  *
   856       O         51.68200000  *  146.03200000  * -41.61400000  *
   857       N         53.72600000  *  146.88400000  * -41.17900000  *
   858       H         54.70100000  *  146.95700000  * -41.45300000  *
   859       C         53.34300000  *  147.35100000  * -39.84600000  *
   860       H         53.03400000  *  146.49700000  * -39.23800000  *
   861       C         54.50500000  *  148.07700000  * -39.15700000  *
   862       H         54.94100000  *  148.81500000  * -39.83000000  *
   863       H         54.12400000  *  148.60600000  * -38.28400000  *
   864       C         55.58400000  *  147.11500000  * -38.68500000  *
   865       O         55.26200000  *  145.90900000  * -38.57600000  *
   866       O         56.73300000  *  147.55200000  * -38.41700000  *
   867       C         52.15000000  *  148.27900000  * -39.96300000  *
   868       O         51.20300000  *  148.18000000  * -39.18700000  *
   869       N         52.18300000  *  149.16200000  * -40.95500000  *
   870       H         53.01600000  *  149.23700000  * -41.51800000  *
   871       C         51.08600000  *  150.10000000  * -41.17300000  *
   872       H         50.93100000  *  150.67400000  * -40.25800000  *
   873       C         51.42800000  *  151.06800000  * -42.31500000  *
   874       H         51.45500000  *  150.53900000  * -43.26600000  *
   875       H         50.66000000  *  151.83800000  * -42.36800000  *
   876       H         52.39300000  *  151.53600000  * -42.12800000  *
   877       C         49.78900000  *  149.37000000  * -41.49900000  *
   878       O         48.71100000  *  149.83600000  * -41.15600000  *
   879       N         49.90500000  *  148.22900000  * -42.16400000  *
   880       H         50.83800000  *  147.88500000  * -42.38200000  *
   881       C         48.74000000  *  147.45400000  * -42.57500000  *
   882       H         47.85700000  *  148.08600000  * -42.62800000  *
   883       H         48.90600000  *  147.02300000  * -43.58600000  *
   884       H         48.52600000  *  146.61900000  * -41.88800000  *
   885       H         72.54500000  *  137.05800000  * -55.15200000  *
   886       C         72.38600000  *  137.90500000  * -54.47400000  *
   887       O         73.28300000  *  138.71900000  * -54.28600000  *
   888       N         71.20100000  *  138.01500000  * -53.89800000  *
   889       H         70.47300000  *  137.31400000  * -54.05700000  *
   890       C         70.96800000  *  139.10000000  * -52.94900000  *
   891       H         71.50000000  *  140.00600000  * -53.22900000  *
   892       C         69.47700000  *  139.40500000  * -52.82500000  *
   893       H         69.09300000  *  139.71900000  * -53.79200000  *
   894       H         68.93000000  *  138.50600000  * -52.53300000  *
   895       C         69.17800000  *  140.45400000  * -51.81200000  *
   896       N         69.23000000  *  140.42300000  * -50.45900000  *
   897       C         68.94700000  *  141.69100000  * -50.01400000  *
   898       H         68.96900000  *  142.01200000  * -48.98400000  *
   899       N         68.72400000  *  142.47200000  * -51.05500000  *
   900       H         68.47200000  *  143.44500000  * -51.00700000  *
   901       C         68.85400000  *  141.75000000  * -52.15500000  *
   902       H         68.77100000  *  142.12600000  * -53.16500000  *
   903       C         71.52100000  *  138.65700000  * -51.58300000  *
   904       O         72.28000000  *  139.38000000  * -50.94700000  *
   905       N         71.11400000  *  137.47100000  * -51.14500000  *
   906       H         70.37100000  *  137.01600000  * -51.66500000  *
   907       C         71.55500000  *  136.88000000  * -49.87700000  *
   908       H         71.18200000  *  135.84900000  * -49.87900000  *
   909       C         73.07600000  *  136.85300000  * -49.83700000  *
   910       H         73.53100000  *  137.83300000  * -49.86900000  *
   911       H         73.36600000  *  136.47900000  * -48.85100000  *
   912       C         73.64700000  *  135.85900000  * -50.81700000  *
   913       H         73.29800000  *  134.87100000  * -50.67200000  *
   914       H         73.21600000  *  136.10500000  * -51.78700000  *
   915       C         75.11700000  *  136.08400000  * -50.99900000  *
   916       H         75.61200000  *  135.95400000  * -50.03300000  *
   917       H         75.49500000  *  135.33200000  * -51.69500000  *
   918       N         75.35800000  *  137.42700000  * -51.50600000  *
   919       H         74.62100000  *  138.12700000  * -51.38200000  *
   920       C         76.54800000  *  137.85900000  * -51.89000000  *
   921       N         77.59300000  *  137.04400000  * -51.81500000  *
   922       H         77.44700000  *  136.21200000  * -51.26800000  *
   923       H         78.49900000  *  137.44300000  * -51.92100000  *
   924       N         76.69000000  *  139.09300000  * -52.35600000  *
   925       H         75.86000000  *  139.69200000  * -52.33800000  *
   926       H         77.56200000  *  139.47800000  * -52.67100000  *
   927       C         71.03700000  *  137.42400000  * -48.54200000  *
   928       O         71.18700000  *  136.76800000  * -47.50900000  *
   929       N         70.43700000  *  138.60400000  * -48.51600000  *
   930       H         70.32800000  *  139.16900000  * -49.34700000  *
   931       C         69.93700000  *  139.07600000  * -47.23100000  *
   932       H         69.76500000  *  138.24900000  * -46.54100000  *
   933       C         70.93500000  *  140.04200000  * -46.56200000  *
   934       H         71.90900000  *  139.56600000  * -46.50900000  *
   935       H         71.04400000  *  140.94300000  * -47.17900000  *
   936       C         70.51300000  *  140.42800000  * -45.14700000  *
   937       O         70.17200000  *  139.51500000  * -44.35500000  *
   938       O         70.51000000  *  141.64400000  * -44.82500000  *
   939       C         68.58700000  *  139.73400000  * -47.37800000  *
   940       O         68.35000000  *  140.81000000  * -46.83500000  *
   941       N         67.68700000  *  139.08300000  * -48.11000000  *
   942       H         67.94300000  *  138.20800000  * -48.54500000  *
   943       C         66.35900000  *  139.64900000  * -48.29900000  *
   944       H         66.47700000  *  140.66700000  * -48.65900000  *
   945       C         65.54600000  *  138.81300000  * -49.28800000  *
   946       H         65.58300000  *  137.78400000  * -48.94500000  *
   947       H         64.50600000  *  139.14000000  * -49.25500000  *
   948       C         66.02700000  *  138.85500000  * -50.73600000  *
   949       H         67.06400000  *  138.52800000  * -50.78200000  *
   950       C         65.17300000  *  137.91700000  * -51.58300000  *
   951       H         64.15900000  *  138.30500000  * -51.68800000  *
   952       H         65.63400000  *  137.80700000  * -52.55000000  *
   953       H         65.13400000  *  136.93500000  * -51.11000000  *
   954       C         65.92100000  *  140.27700000  * -51.26400000  *
   955       H         66.42000000  *  140.99600000  * -50.63300000  *
   956       H         66.44200000  *  140.27500000  * -52.20900000  *
   957       H         64.88200000  *  140.56100000  * -51.39700000  *
   958       C         65.59400000  *  139.73400000  * -46.98200000  *
   959       O         65.58600000  *  138.79200000  * -46.16600000  *
   960       N         64.95700000  *  140.85600000  * -46.74400000  *
   961       H         64.96700000  *  141.58900000  * -47.44100000  *
   962       C         64.16600000  *  141.06100000  * -45.54600000  *
   963       H         63.55300000  *  140.17100000  * -45.40900000  *
   964       C         65.04100000  *  141.22300000  * -44.28500000  *
   965       H         64.40400000  *  141.28500000  * -43.40200000  *
   966       H         65.63800000  *  140.31900000  * -44.16700000  *
   967       C         65.97700000  *  142.43900000  * -44.28600000  *
   968       H         66.38200000  *  142.59200000  * -45.28400000  *
   969       H         65.42400000  *  143.32700000  * -43.98300000  *
   970       C         67.13700000  *  142.17200000  * -43.32000000  *
   971       H         66.74300000  *  141.89200000  * -42.34000000  *
   972       H         67.71700000  *  141.33500000  * -43.71700000  *
   973       C         68.04300000  *  143.39600000  * -43.16500000  *
   974       H         68.14700000  *  143.88800000  * -44.13700000  *
   975       H         67.56000000  *  144.10300000  * -42.48100000  *
   976       N         69.37800000  *  142.98900000  * -42.65200000  *
   977       H         69.87100000  *  142.42000000  * -43.35500000  *
   978       H         69.94400000  *  143.79700000  * -42.42200000  *
   979       H         69.28400000  *  142.43600000  * -41.81000000  *
   980       C         63.26700000  *  142.23100000  * -45.83500000  *
   981       O         63.62900000  *  143.07600000  * -46.65300000  *
   982       N         62.11200000  *  142.30300000  * -45.18600000  *
   983       C         61.62600000  *  141.34600000  * -44.17100000  *
   984       H         62.10000000  *  141.53200000  * -43.20900000  *
   985       H         61.74500000  *  140.31100000  * -44.47600000  *
   986       C         60.16400000  *  141.66900000  * -44.09500000  *
   987       H         59.73700000  *  141.34900000  * -43.14300000  *
   988       H         59.63700000  *  141.20600000  * -44.93200000  *
   989       C         60.16000000  *  143.18900000  * -44.24800000  *
   990       H         60.51600000  *  143.64900000  * -43.32100000  *
   991       H         59.20200000  *  143.56500000  * -44.57400000  *
   992       C         61.14500000  *  143.38000000  * -45.40300000  *
   993       H         60.63400000  *  143.20500000  * -46.34500000  *
   994       C         61.77100000  *  144.77100000  * -45.44800000  *
   995       O         61.39200000  *  145.58400000  * -46.27300000  *
   996       N         62.72500000  *  145.09100000  * -44.55600000  *
   997       H         62.97100000  *  144.40500000  * -43.85900000  *
   998       C         63.44000000  *  146.39100000  * -44.53700000  *
   999       H         62.70500000  *  147.19300000  * -44.44000000  *
  1000       C         64.40100000  *  146.46300000  * -43.33800000  *
  1001       H         65.08600000  *  145.61600000  * -43.37900000  *
  1002       H         64.99500000  *  147.37400000  * -43.42700000  *
  1003       C         63.70700000  *  146.49800000  * -41.97000000  *
  1004       H         63.02200000  *  147.34600000  * -41.94500000  *
  1005       H         63.13600000  *  145.58300000  * -41.82600000  *
  1006       C         64.71300000  *  146.61900000  * -40.82300000  *
  1007       O         65.71500000  *  145.91900000  * -40.76300000  *
  1008       N         64.48900000  *  147.49200000  * -39.86600000  *
  1009       H         65.16200000  *  147.56000000  * -39.11600000  *
  1010       H         63.69100000  *  148.10800000  * -39.89800000  *
  1011       C         64.26400000  *  146.68100000  * -45.81000000  *
  1012       O         64.44100000  *  147.83600000  * -46.18800000  *
  1013       N         64.76000000  *  145.63400000  * -46.47400000  *
  1014       H         64.48200000  *  144.71400000  * -46.16600000  *
  1015       C         65.53700000  *  145.69500000  * -47.71200000  *
  1016       H         66.11000000  *  146.62500000  * -47.73900000  *
  1017       C         66.53800000  *  144.50900000  * -47.74800000  *
  1018       H         66.02500000  *  143.58600000  * -47.49200000  *
  1019       H         66.91500000  *  144.38900000  * -48.76100000  *
  1020       C         67.76300000  *  144.67200000  * -46.85800000  *
  1021       O         68.08200000  *  145.74100000  * -46.37100000  *
  1022       N         68.51300000  *  143.61900000  * -46.61500000  *
  1023       H         69.37600000  *  143.75100000  * -46.11500000  *
  1024       H         68.25500000  *  142.67600000  * -46.88800000  *
  1025       C         64.63400000  *  145.71500000  * -48.96500000  *
  1026       O         65.15800000  *  145.63400000  * -50.07400000  *
  1027       N         63.30000000  *  145.80300000  * -48.83400000  *
  1028       H         62.89500000  *  145.87300000  * -47.90900000  *
  1029       C         62.40600000  *  145.84500000  * -49.97900000  *
  1030       H         62.94700000  *  145.74800000  * -50.91900000  *
  1031       C         61.36900000  *  144.72100000  * -49.88900000  *
  1032       H         60.76900000  *  144.86100000  * -48.99200000  *
  1033       H         60.74400000  *  144.79800000  * -50.77200000  *
  1034       C         62.03600000  *  143.32400000  * -49.85900000  *
  1035       H         62.67100000  *  143.24000000  * -48.98800000  *
  1036       C         61.00200000  *  142.26000000  * -49.77100000  *
  1037       H         60.24600000  *  142.42800000  * -50.53400000  *
  1038       H         61.44700000  *  141.27100000  * -49.89000000  *
  1039       H         60.52000000  *  142.31900000  * -48.79800000  *
  1040       C         62.89500000  *  143.12600000  * -51.08400000  *
  1041       H         63.82900000  *  143.66800000  * -50.95600000  *
  1042       H         63.12900000  *  142.06900000  * -51.20900000  *
  1043       H         62.39300000  *  143.49200000  * -51.96600000  *
  1044       C         61.76300000  *  147.21800000  * -49.95200000  *
  1045       O         61.15000000  *  147.60200000  * -48.96600000  *
  1046       N         61.88000000  *  147.97600000  * -51.03400000  *
  1047       H         62.37200000  *  147.60500000  * -51.84100000  *
  1048       C         61.44000000  *  149.36900000  * -51.06200000  *
  1049       H         61.05400000  *  149.66800000  * -50.09000000  *
  1050       C         62.62000000  *  150.27600000  * -51.38400000  *
  1051       H         62.95100000  *  150.07800000  * -52.40400000  *
  1052       H         62.26200000  *  151.30000000  * -51.32100000  *
  1053       C         63.81200000  *  150.10600000  * -50.43500000  *
  1054       H         64.22900000  *  149.10600000  * -50.53700000  *
  1055       C         64.86000000  *  151.12200000  * -50.83900000  *
  1056       H         64.50300000  *  152.11800000  * -50.59100000  *
  1057       H         65.78400000  *  150.90400000  * -50.31200000  *
  1058       H         65.04500000  *  151.08600000  * -51.90500000  *
  1059       C         63.46300000  *  150.34500000  * -48.96900000  *
  1060       H         62.84700000  *  149.53000000  * -48.60400000  *
  1061       H         64.37300000  *  150.37000000  * -48.37100000  *
  1062       H         62.92500000  *  151.28400000  * -48.86100000  *
  1063       C         60.32100000  *  149.56100000  * -52.06500000  *
  1064       O         60.41600000  *  149.10000000  * -53.19100000  *
  1065       N         59.26800000  *  150.25600000  * -51.67700000  *
  1066       H         59.36500000  *  150.76300000  * -50.80000000  *
  1067       C         58.08300000  *  150.44700000  * -52.50800000  *
  1068       H         58.17300000  *  149.92400000  * -53.45700000  *
  1069       C         56.81900000  *  149.90600000  * -51.78600000  *
  1070       H         55.94300000  *  150.08700000  * -52.41500000  *
  1071       C         56.95000000  *  148.40400000  * -51.54300000  *
  1072       H         57.75300000  *  148.18300000  * -50.83300000  *
  1073       H         56.01300000  *  148.00400000  * -51.15200000  *
  1074       H         57.15800000  *  147.91500000  * -52.48900000  *
  1075       C         56.64700000  *  150.60600000  * -50.43300000  *
  1076       H         57.48200000  *  150.38000000  * -49.77500000  *
  1077       H         56.60500000  *  151.68300000  * -50.57600000  *
  1078       C         55.37000000  *  150.22200000  * -49.68600000  *
  1079       H         55.48900000  *  149.24800000  * -49.22200000  *
  1080       H         55.17000000  *  150.96500000  * -48.91000000  *
  1081       H         54.52900000  *  150.16800000  * -50.38500000  *
  1082       C         57.87200000  *  151.93000000  * -52.81700000  *
  1083       O         58.38200000  *  152.79400000  * -52.10000000  *
  1084       N         57.14900000  *  152.22000000  * -53.89700000  *
  1085       H         56.70500000  *  151.48200000  * -54.43300000  *
  1086       C         56.84100000  *  153.60200000  * -54.22700000  *
  1087       H         57.16800000  *  154.27800000  * -53.43100000  *
  1088       C         57.50400000  *  154.05300000  * -55.54100000  *
  1089       H         57.21800000  *  155.07000000  * -55.80500000  *
  1090       H         58.58200000  *  154.04400000  * -55.38800000  *
  1091       C         57.19300000  *  153.14600000  * -56.70100000  *
  1092       O         56.13500000  *  152.53500000  * -56.76400000  *
  1093       N         58.11500000  *  153.07200000  * -57.64100000  *
  1094       H         57.83300000  *  152.61700000  * -58.48600000  *
  1095       H         58.88600000  *  153.71500000  * -57.62100000  *
  1096       C         55.33100000  *  153.75800000  * -54.32100000  *
  1097       O         54.57600000  *  152.79900000  * -54.11400000  *
  1098       N         54.88500000  *  154.97100000  * -54.62100000  *
  1099       H         55.52100000  *  155.73600000  * -54.79200000  *
  1100       C         53.46400000  *  155.24700000  * -54.72300000  *
  1101       H         52.92700000  *  154.82600000  * -53.87200000  *
  1102       C         53.20900000  *  156.78000000  * -54.75500000  *
  1103       H         52.16900000  *  156.98000000  * -55.02600000  *
  1104       C         53.47800000  *  157.39700000  * -53.41000000  *
  1105       H         54.52100000  *  157.25500000  * -53.13000000  *
[...]
 1005  H   0.85322
 1006  C   1.06707   0.81295   0.75106   0.79762
 1007  O   1.88306   1.37373   1.53004   1.79653
 1008  N   1.52730   1.35311   1.41914   1.33155
 1009  H   0.66593
 1010  H   0.69174
 1011  C   1.08348   0.76563   0.79233   0.82144
 1012  O   1.88900   1.62728   1.28508   1.70453
 1013  N   1.55187   1.52311   1.20102   1.30653
 1014  H   0.67350
 1015  C   1.07170   0.94359   1.09070   0.82022
 1016  H   0.80284
 1017  C   1.06999   1.05605   1.09041   1.15843
 1018  H   0.83567
 1019  H   0.80579
 1020  C   1.06066   0.81177   0.77901   0.77461
 1021  O   1.87971   1.74404   1.38619   1.58062
 1022  N   1.53353   1.32043   1.19716   1.59534
 1023  H   0.66772
 1024  H   0.65828
 1025  C   1.09084   0.78495   0.71245   0.85259
 1026  O   1.87689   1.77176   1.62519   1.39029
 1027  N   1.54114   1.12582   1.65894   1.18463
 1028  H   0.65012
 1029  C   1.06957   0.96885   0.98407   0.97336
 1030  H   0.81523
 1031  C   1.06724   1.06534   0.99357   1.17588
 1032  H   0.83279
 1033  H   0.84859
 1034  C   1.04097   1.01073   0.95068   1.05965
 1035  H   0.85421
 1036  C   1.04882   1.12531   1.11257   1.17388
 1037  H   0.84828
 1038  H   0.85745
 1039  H   0.86068
 1040  C   1.05132   1.14381   1.16448   1.10201
 1041  H   0.84401
 1042  H   0.86475
 1043  H   0.85129
 1044  C   1.07555   0.75469   0.84304   0.75932
 1045  O   1.87364   1.52605   1.79129   1.43879
 1046  N   1.54555   1.56267   1.17357   1.24359
 1047  H   0.64934
 1048  C   1.06452   0.98861   0.82401   1.10432
 1049  H   0.80912
 1050  C   1.06405   1.02351   1.11028   1.12077
 1051  H   0.85162
 1052  H   0.83819
 1053  C   1.04818   0.96452   1.06645   0.97914
 1054  H   0.86962
 1055  C   1.05326   1.12040   1.13846   1.15785
 1056  H   0.84369
 1057  H   0.85995
 1058  H   0.86401
 1059  C   1.05469   1.18094   1.18362   1.03406
 1060  H   0.83540
 1061  H   0.84833
 1062  H   0.84370
 1063  C   1.07490   0.79911   0.74338   0.81487
 1064  O   1.86834   1.83485   1.63224   1.34706
 1065  N   1.54225   1.18819   1.46532   1.29732
 1066  H   0.63956
 1067  C   1.07606   0.89278   1.00337   1.04023
 1068  H   0.81412
 1069  C   1.06492   1.01425   0.99075   1.02297
 1070  H   0.84071
 1071  C   1.05433   1.17992   1.03685   1.17302
 1072  H   0.84476
 1073  H   0.84645
 1074  H   0.85573
 1075  C   1.05405   1.07317   1.11914   1.02995
 1076  H   0.84666
 1077  H   0.86161
 1078  C   1.05254   1.08503   1.16105   1.13169
 1079  H   0.84599
 1080  H   0.87469
 1081  H   0.84793
 1082  C   1.08712   0.74061   0.88922   0.74122
 1083  O   1.88696   1.56935   1.57730   1.55350
 1084  N   1.54364   1.50776   1.14238   1.34150
 1085  H   0.63891
 1086  C   1.06101   0.99356   0.88778   1.01562
 1087  H   0.80626
 1088  C   1.07107   1.17490   1.11305   1.04299
 1089  H   0.83060
 1090  H   0.81631
 1091  C   1.06758   0.77853   0.79246   0.82271
 1092  O   1.88767   1.30794   1.50667   1.80359
 1093  N   1.53674   1.31193   1.52159   1.27872
 1094  H   0.69323
 1095  H   0.69367
 1096  C   1.08098   0.88542   0.77742   0.75106
 1097  O   1.89442   1.62467   1.43480   1.52650
 1098  N   1.54121   1.14493   1.19533   1.69380
 1099  H   0.67696
 1100  C   1.08533   0.83350   1.04068   1.09584
 1101  H   0.80907
 1102  C   1.08452   0.98679   0.88321   0.88943
 1103  H   0.85800
 1104  C   1.05302   1.18524   1.17293   1.05399
 1105  H   0.83945
 1106  H   0.83167
 1107  H   0.83367
 1108  O   1.85145   1.58082   1.82060   1.32259
 1109  H   0.67560
 1110  C   1.07463   0.81028   0.77006   0.81931
 1111  O   1.88597   1.23163   1.61631   1.81391
 1112  N   1.53431   1.18220   1.58139   1.22126
 1113  H   0.69119
 1114  C   1.05382   1.13271   1.13989   0.88765
 1115  H   0.84132
 1116  H   0.87149
 1117  H   0.83533
 1118  H   0.86776
 1119  C   1.10016   0.76466   0.75341   0.92054
 1120  O   1.88718   1.66990   1.57174   1.45696
 1121  N   1.54651   1.44424   1.35134   1.20803
 1122  H   0.67433
 1123  C   1.08024   0.92956   1.08533   0.92418
 1124  H   0.80969
 1125  C   1.07314   1.07896   0.95474   0.98269
 1126  H   0.84455
 1127  C   1.05753   1.18806   1.08045   1.12370
 1128  H   0.83781
 1129  H   0.85414
 1130  H   0.85839
 1131  C   1.05396   1.07450   1.13483   1.01845
 1132  H   0.85600
 1133  H   0.85288
 1134  C   1.04894   1.14435   1.14770   1.09043
 1135  H   0.85591
 1136  H   0.85952
 1137  H   0.84923
 1138  C   1.07499   0.84247   0.74908   0.79223
 1139  O   1.88224   1.88201   1.48256   1.36323
 1140  N   1.54644   1.09796   1.54169   1.34240
 1141  H   0.63182
 1142  C   1.06855   0.84974   1.04365   1.03837
 1143  H   0.81433
 1144  C   1.05972   1.08832   1.05584   1.09061
 1145  H   0.83175
 1146  H   0.84708
 1147  C   1.05088   1.08880   1.03336   1.08236
 1148  H   0.85997
 1149  H   0.83926
 1150  C   1.06097   1.07570   1.05668   1.09774
 1151  H   0.82461
 1152  H   0.82697
 1153  C   1.08077   1.03062   0.99291   1.07430
 1154  H   0.83907
 1155  H   0.82664
 1156  N   1.46660   1.22999   1.24809   1.26150
 1157  H   0.65286
 1158  H   0.70046
 1159  H   0.73279
 1160  C   1.07989   0.77826   0.75058   0.82890
 1161  O   1.88192   1.76766   1.68878   1.28826
 1162  N   1.54489   1.33079   1.42960   1.22894
 1163  H   0.64222
 1164  C   1.06971   0.91863   0.95586   1.02968
 1165  H   0.83155
 1166  C   1.06259   1.09796   1.02059   1.13373
 1167  H   0.83447
 1168  H   0.84835
 1169  C   1.05388   1.07603   0.96021   0.95806
 1170  H   0.85409
 1171  C   1.06150   1.15481   1.13921   1.09686
 1172  H   0.86267
 1173  H   0.85286
 1174  H   0.84793
 1175  C   1.05713   1.17416   1.13652   1.09502
 1176  H   0.85047
 1177  H   0.85400
 1178  H   0.86062
 1179  C   1.08560   0.79191   0.80102   0.75890
 1180  O   1.88112   1.63247   1.59764   1.53802
 1181  N   1.54348   1.36312   1.43966   1.16228
 1182  H   0.64078
 1183  C   1.06662   0.91335   0.93125   1.04723
 1184  H   0.83106
 1185  C   1.05905   1.16377   1.07599   1.16052
 1186  H   0.81539
 1187  H   0.85400
 1188  H   0.81864
 1189  C   1.08984   0.78266   0.78998   0.74511
 1190  O   1.87245   1.83251   1.35459   1.59248
 1191  N   1.54703   1.18320   1.31837   1.50036
 1192  H   0.68677
 1193  C   1.07557   0.88214   1.07247   0.93569
 1194  H   0.83044
 1195  C   1.07833   1.15644   1.16743   1.00671
 1196  H   0.79948
 1197  H   0.83505
 1198  C   1.06866   0.72412   0.73389   0.69885
 1199  O   1.88774   1.67368   1.49377   1.66574
 1200  O   1.86816   1.79369   1.43525   1.78382
 1201  C   1.08864   0.82034   0.79580   0.75070
 1202  O   1.88744   1.28773   1.79553   1.57242
 1203  N   1.56606   1.29277   1.16975   1.53879
 1204  H   0.68105
 1205  C   1.07981   1.01758   0.91653   0.95441
 1206  H   0.84089
 1207  C   1.05591   1.08104   1.20356   0.95962
 1208  H   0.81496
 1209  H   0.81702
 1210  C   1.07356   0.97071   0.97793   0.97103
 1211  C   1.08853   1.03622   1.04160   1.01345
 1212  H   0.84232
 1213  C   1.08467   0.99223   1.05635   1.01733
 1214  H   0.85921
 1215  C   1.08699   1.05789   0.99200   1.02804
 1216  H   0.84917
 1217  C   1.08969   1.03654   1.03386   0.98328
 1218  H   0.83015
 1219  C   1.08697   0.98584   1.05944   1.02035
 1220  H   0.84296
 1221  C   1.09053   0.80383   0.77448   0.76260
 1222  O   1.88502   1.44571   1.56321   1.71392
 1223  N   1.53964   1.41481   1.43608   1.13578
 1224  H   0.68083
 1225  C   1.06893   0.98353   1.07147   0.98557
 1226  H   0.80975
 1227  H   0.80343
 1228  C   1.07992   0.82914   0.77411   0.70031
 1229  O   1.87536   1.84483   1.33236   1.62609
 1230  N   1.55655   1.29373   1.23553   1.44112
 1231  H   0.66794
 1232  C   1.07742   0.89981   1.03779   0.96272
 1233  H   0.84739
 1234  C   1.06841   1.11195   0.94608   1.18023
 1235  H   0.83032
 1236  H   0.83360
 1237  C   1.05187   1.03132   0.96375   1.00838
 1238  H   0.86273
 1239  C   1.05597   1.16885   1.06306   1.16653
 1240  H   0.85605
 1241  H   0.84392
 1242  H   0.85319
 1243  C   1.05581   1.17251   1.18856   1.04683
 1244  H   0.84484
 1245  H   0.83711
 1246  H   0.85944
 1247  C   1.09733   0.86634   0.76897   0.74082
 1248  O   1.88381   1.31126   1.77540   1.56760
 1249  N   1.58475   1.28159   1.24074   1.52961
 1250  H   0.66415
 1251  C   1.06956   0.95997   0.99027   0.96132
 1252  H   0.82551
 1253  C   1.05736   1.14343   1.09949   1.16282
 1254  H   0.86468
 1255  H   0.82061
 1256  H   0.81159
 1257  C   1.07868   0.84929   0.76961   0.78371
 1258  O   1.89123   1.45683   1.52787   1.62160
 1259  N   1.54611   1.31356   1.54411   1.15312
 1260  H   0.70141
 1261  C   1.06029   0.93073   1.14799   1.09024
 1262  H   0.81701
 1263  H   0.85538
 1264  H   0.84424
 1265  H   0.88482
 1266  C   1.09733   0.75860   0.82383   0.87005
 1267  O   1.89049   1.46959   1.31211   1.86343
 1268  N   1.54400   1.50212   1.35473   1.15125
 1269  H   0.69040
 1270  C   1.07228   1.10767   0.96310   0.82267
 1271  H   0.80423
 1272  C   1.05772   1.09503   1.03332   1.13930
 1273  H   0.84353
 1274  H   0.83486
 1275  C   1.06441   0.97683   0.94767   0.96781
 1276  C   1.08138   1.01305   0.99077   1.05592
 1277  H   0.84804
 1278  C   1.08042   1.03472   1.02498   0.99542
 1279  H   0.85558
 1280  C   1.07835   1.00798   1.05273   1.02399
 1281  H   0.86112
 1282  C   1.07782   1.02505   1.00517   1.04987
 1283  H   0.86361
 1284  C   1.08033   1.06064   1.02610   0.99998
 1285  H   0.84851
 1286  C   1.08352   0.77271   0.80346   0.81753
 1287  O   1.89084   1.50301   1.62912   1.48149
 1288  N   1.53961   1.18187   1.36165   1.44858
 1289  H   0.68056
 1290  C   1.05559   1.13038   0.97810   0.99588
 1291  H   0.83592
 1292  H   0.79621
 1293  C   1.07747   0.78704   0.75763   0.80348
 1294  O   1.87384   1.54301   1.38659   1.83917
 1295  N   1.53570   1.40920   1.37238   1.18556
 1296  H   0.67087
 1297  C   1.07388   1.00528   1.18554   0.89146
 1298  H   0.81608
 1299  H   0.81513
 1300  C   1.07891   0.79690   0.76146   0.81356
 1301  O   1.89013   1.46379   1.49140   1.68860
 1302  N   1.56532   1.46191   1.16869   1.27047
 1303  C   1.06821   1.06572   0.87187   1.05082
 1304  H   0.84477
 1305  H   0.84978
 1306  C   1.05752   1.03589   1.14221   1.06229
 1307  H   0.83903
 1308  H   0.79995
 1309  C   1.05940   1.09339   0.99345   1.15168
 1310  H   0.85784
 1311  H   0.83305
 1312  C   1.07057   1.04410   0.98682   0.88037
 1313  H   0.83386
 1314  C   1.09122   0.79089   0.79439   0.82247
 1315  O   1.89224   1.35942   1.36155   1.85864
 1316  N   1.54613   1.41375   1.50935   1.12656
 1317  H   0.68439
 1318  C   1.07857   1.04427   1.12152   0.88177
 1319  H   0.80285
 1320  H   0.82127
 1321  C   1.08609   0.82895   0.73294   0.78193
 1322  O   1.88600   1.69521   1.71570   1.32129
 1323  N   1.55275   1.23493   1.41498   1.34515
 1324  H   0.68885
 1325  C   1.07641   0.85832   1.05999   0.98297
 1326  H   0.82265
 1327  C   1.05904   1.17681   1.07712   0.96483
 1328  H   0.84753
 1329  H   0.82265
 1330  C   1.05757   1.11780   1.05725   1.05048
 1331  H   0.83353
 1332  H   0.87481
 1333  C   1.06931   1.10891   1.11916   0.74618
 1334  H   0.83610
 1335  H   0.80747
 1336  N   1.53393   1.59290   1.27312   1.10591
 1337  H   0.67026
 1338  C   0.97633   0.84036   0.80647   0.79179
 1339  N   1.49890   1.55659   1.25219   1.24769
 1340  H   0.64602
 1341  H   0.65726
 1342  N   1.50165   1.59036   1.35402   1.14265
 1343  H   0.66376
 1344  H   0.65928
 1345  C   1.08035   0.77733   0.78191   0.84594
 1346  O   1.89146   1.44915   1.63070   1.54516
 1347  N   1.54304   1.55326   1.19464   1.24226
 1348  H   0.68967
 1349  C   1.09114   1.00824   1.01052   0.91121
 1350  H   0.80181
 1351  C   1.08425   0.92233   0.92512   0.88614
 1352  H   0.85287
 1353  C   1.05835   1.10846   1.12663   1.19975
 1354  H   0.82556
 1355  H   0.82802
 1356  H   0.84162
 1357  O   1.84264   1.59345   1.64103   1.56131
 1358  H   0.61004
 1359  C   1.07952   0.81635   0.79792   0.77148
 1360  O   1.88891   1.52531   1.78962   1.35973
 1361  N   1.55424   1.33137   1.29558   1.37738
 1362  H   0.64963
 1363  C   1.07360   0.97549   0.92475   1.00606
 1364  H   0.83137
 1365  C   1.05687   1.09246   1.06702   1.08544
 1366  H   0.85249
 1367  H   0.83309
 1368  C   1.05818   0.97061   0.97350   1.08025
 1369  C   1.08225   0.97480   1.07653   0.99895
 1370  H   0.85015
 1371  C   1.08688   1.08404   0.99783   0.99317
 1372  H   0.79875
 1373  C   1.06897   0.83308   0.89496   0.87067
 1374  O   1.84106   1.46286   1.54349   1.69830
 1375  H   0.60281
 1376  C   1.07138   0.99549   1.09208   1.08357
 1377  H   0.85512
 1378  C   1.07706   1.05304   1.00405   1.02403
 1379  H   0.87658
 1380  C   1.08217   0.79272   0.75806   0.82379
 1381  O   1.88960   1.35956   1.51331   1.81059
 1382  N   1.55306   1.20484   1.61386   1.14978
 1383  H   0.65938
 1384  C   1.08596   1.09405   1.05487   0.83730
 1385  H   0.84992
 1386  C   1.08034   0.85370   0.86967   1.00710
 1387  H   0.87785
 1388  C   1.05614   1.09522   1.13672   1.18991
 1389  H   0.83165
 1390  H   0.85583
 1391  H   0.85268
 1392  O   1.84991   1.30835   1.76155   1.64745
 1393  H   0.59972
 1394  C   1.08851   0.86103   0.77052   0.80774
 1395  O   1.89630   1.23809   1.65303   1.60111
 1396  N   1.54727   1.20485   1.30463   1.51968
 1397  H   0.69375
 1398  C   1.06720   1.01856   1.01456   1.05312
 1399  H   0.88122
 1400  H   0.84505
 1401  C   1.06973   0.85187   0.75610   0.78784
 1402  O   1.89314   1.66806   1.37974   1.51100
 1403  N   1.55716   1.14815   1.53533   1.33782
 1404  H   0.68903
 1405  C   1.07207   0.82318   0.97442   1.14091
 1406  H   0.83287
 1407  C   1.05673   1.16635   1.00935   1.02704
 1408  H   0.84750
 1409  H   0.83040
 1410  C   1.06023   1.20402   0.98317   1.16347
 1411  H   0.83481
 1412  H   0.83534
 1413  C   1.06242   0.73988   0.72288   0.73417
 1414  O   1.89254   1.43060   1.79842   1.60744
 1415  O   1.88382   1.53415   1.58116   1.81727
 1416  C   1.09476   0.76529   0.86728   0.74699
 1417  O   1.88701   1.65376   1.65705   1.40281
 1418  N   1.54801   1.31566   1.19233   1.48971
 1419  H   0.67121
 1420  C   1.07026   1.04652   0.86917   1.02923
 1421  H   0.87160
 1422  C   1.05523   1.03122   1.04109   0.95590
 1423  H   0.82493
 1424  C   1.05491   1.16613   1.03663   1.20501
 1425  H   0.86106
 1426  H   0.84199
 1427  H   0.82111
 1428  C   1.05352   1.16794   1.15503   1.07904
 1429  H   0.85337
 1430  H   0.83985
 1431  H   0.87279
 1432  C   1.07379   0.79241   0.74883   0.84330
 1433  O   1.88971   1.32233   1.58709   1.74395
 1434  N   1.53879   1.27321   1.49309   1.21306
 1435  H   0.68157
 1436  C   1.07441   1.00932   1.04586   0.86612
 1437  H   0.84289
 1438  C   1.06137   1.03029   1.01680   0.97993
 1439  H   0.83856
 1440  C   1.05312   1.18243   1.10072   1.10932
 1441  H   0.83369
 1442  H   0.84885
 1443  H   0.86528
 1444  C   1.05651   1.19183   1.16268   1.04355
 1445  H   0.86076
 1446  H   0.83701
 1447  H   0.83039
 1448  C   1.08291   0.80949   0.79868   0.76219
 1449  O   1.88748   1.79479   1.44257   1.43264
 1450  N   1.53613   1.24359   1.43832   1.31511
 1451  H   0.68533
 1452  C   1.07803   0.90315   0.96828   1.14057
 1453  H   0.81611
 1454  C   1.07867   0.93216   0.84245   0.98902
 1455  H   0.87386
 1456  C   1.05580   1.09976   1.13378   1.18169
 1457  H   0.84016
 1458  H   0.82838
 1459  H   0.84551
 1460  O   1.85210   1.45290   1.47049   1.77151
 1461  H   0.66553
 1462  C   1.07527   0.76587   0.82452   0.81383
 1463  O   1.88675   1.45248   1.86785   1.32202
 1464  N   1.53704   1.58451   1.12338   1.28792
 1465  H   0.68726
 1466  C   1.05225   1.16019   0.87607   1.13283
 1467  H   0.82182
 1468  H   0.85346
 1469  H   0.86626
 1470  H   0.86951
 1471  C   1.10170   0.76415   0.81175   0.89545
 1472  O   1.88719   1.42749   1.33464   1.87143
 1473  N   1.55040   1.52615   1.36327   1.14172
 1474  H   0.68728
 1475  C   1.07790   1.09041   1.02961   0.79368
 1476  H   0.81262
 1477  C   1.05936   1.13167   1.00684   1.09922
 1478  H   0.81564
 1479  H   0.82651
 1480  C   1.06832   0.97633   0.98732   0.99794
 1481  C   1.08108   0.99042   1.01959   1.00398
 1482  H   0.84547
 1483  C   1.07576   1.10244   1.04739   1.06471
 1484  H   0.82512
 1485  C   1.07248   0.88867   0.88819   0.88302
 1486  O   1.84179   1.33088   1.60069   1.72822
 1487  H   0.65396
 1488  C   1.07526   0.98864   1.10184   1.09834
 1489  H   0.83453
 1490  C   1.08714   1.07415   0.98153   0.97225
 1491  H   0.84096
 1492  C   1.08203   0.80331   0.78088   0.81050
 1493  O   1.89297   1.77880   1.64268   1.23670
 1494  N   1.53512   1.26484   1.54067   1.17728
 1495  H   0.69016
 1496  C   1.05806   0.92151   1.08518   1.15569
 1497  H   0.83222
 1498  H   0.85590
 1499  H   0.85019
 1500  H   0.86603
 1501  C   1.10296   0.82984   0.87807   0.75947
 1502  O   1.89044   1.34344   1.83481   1.42337
 1503  N   1.55422   1.37692   1.20578   1.47146
 1504  H   0.69162
 1505  C   1.07915   0.97663   0.84372   1.12476
 1506  H   0.81508
 1507  C   1.05898   0.98036   1.00866   1.06731
 1508  H   0.86938
 1509  C   1.05192   1.15810   1.05393   1.18188
 1510  H   0.83695
 1511  H   0.85318
 1512  H   0.83577
 1513  C   1.04805   1.00411   1.12223   1.09029
 1514  H   0.86264
 1515  H   0.86421
 1516  C   1.04891   1.11922   1.13523   1.13908
 1517  H   0.85382
 1518  H   0.85534
 1519  H   0.85421
 1520  C   1.07238   0.86789   0.76280   0.76288
 1521  O   1.88566   1.52985   1.48945   1.60552
 1522  N   1.54257   1.16439   1.44801   1.40502
 1523  H   0.70101
 1524  C   1.06816   0.88834   1.14591   1.09857
 1525  H   0.85010
 1526  H   0.86157
 1527  H   0.82828
 1528  H   0.86170
 1529  C   1.10307   0.85217   0.75661   0.84829
 1530  O   1.89242   1.78021   1.57455   1.31033
 1531  N   1.53873   1.27082   1.41805   1.30165
 1532  H   0.68204
 1533  C   1.05774   0.87970   1.04727   1.01908
 1534  H   0.82201
 1535  C   1.06041   1.03583   1.11684   1.10603
 1536  H   0.84148
 1537  H   0.84413
 1538  C   1.04478   0.99099   0.96554   1.05985
 1539  H   0.87932
 1540  C   1.05438   1.16121   1.06599   1.18137
 1541  H   0.84320
 1542  H   0.84599
 1543  H   0.85101
 1544  C   1.05257   1.12473   1.16978   1.11017
 1545  H   0.85968
 1546  H   0.84690
 1547  H   0.84008
 1548  C   1.08000   0.74566   0.87743   0.77795
 1549  O   1.88738   1.52415   1.42225   1.71298
 1550  N   1.54023   1.59582   1.20277   1.20208
 1551  H   0.67694
 1552  C   1.06920   1.04570   0.93877   0.93178
 1553  H   0.81965
 1554  C   1.05602   1.16673   1.05761   1.01478
 1555  H   0.83572
 1556  H   0.83221
 1557  C   1.05724   1.12837   1.10521   1.02217
 1558  H   0.83987
 1559  H   0.82551
 1560  C   1.06737   1.16578   0.93398   0.90760
 1561  H   0.82039
 1562  H   0.83853
 1563  N   1.52348   1.14355   1.42316   1.39810
 1564  H   0.66770
 1565  C   0.99024   0.79781   0.80734   0.81347
 1566  N   1.51438   1.10581   1.46135   1.48339
 1567  H   0.64450
 1568  H   0.65939
 1569  N   1.50488   1.23280   1.41707   1.42985
 1570  H   0.66056
 1571  H   0.65739
 1572  C   1.07514   0.86240   0.78988   0.77479
 1573  O   1.88879   1.59473   1.59568   1.52390
 1574  N   1.53735   1.18907   1.25277   1.49255
 1575  H   0.67796
 1576  C   1.08126   0.82467   1.13562   1.04148
 1577  H   0.82559
 1578  C   1.05987   1.15876   1.08150   0.99992
 1579  H   0.84454
 1580  H   0.84905
 1581  C   1.04881   1.08031   0.97346   0.94559
 1582  H   0.87070
 1583  C   1.05535   1.15824   1.15724   1.09175
 1584  H   0.86905
 1585  H   0.86687
 1586  H   0.85343
 1587  C   1.05680   1.16420   1.09081   1.15433
 1588  H   0.84654
 1589  H   0.87027
 1590  H   0.83925
 1591  C   1.07452   0.75893   0.76279   0.73169
 1592  O   1.88868   1.43264   1.84397   1.57927
 1593  O   1.89199   1.52733   1.54891   1.77918

 **********************
 *                    *
 * JOB ENDED NORMALLY *
 *                    *
 **********************



 TOTAL JOB TIME:          2315.57 SECONDS

 == MOPAC DONE ==
