 *******************************************************************************
 **                                                                           **
 **                              MOPAC v23.2.2                                **
 **                                                                           **
 *******************************************************************************
 **          Digital Object Identifier (DOI): 10.5281/zenodo.6511958          **
 **    Visit the DOI location for information on how to cite this program.    **
 *******************************************************************************

                              PM7 CALCULATION RESULTS

 *******************************************************************************
 *  CALCULATION DONE: (MAX THREADS = 24)             Thu Jan 22 12:47:08 2026  *
 *  PM7        - The PM7 Hamiltonian to be used
 *
 *
 *
 *                 CHARGE ON SYSTEM = +2
 *
 *
 *
 *  EPS=1      - USE ANDREAS KLAMT'S COSMO IMPLICIT SOLVATION MODEL
 *  XYZ        - CARTESIAN COORDINATE SYSTEM TO BE USED
 *  1SCF       - DO 1 SCF AND THEN STOP 
 *  T=         - A TIME OF 172800.0 SECONDS REQUESTED
 *  DUMP=N     - RESTART FILE WRITTEN EVERY 7200.0 SECONDS REQUESTED
 *******************************************************************************
PM7 1SCF XYZ CHARGE=2 EPS=1


   ATOM   CHEMICAL          X               Y               Z
  NUMBER   SYMBOL      (ANGSTROMS)     (ANGSTROMS)     (ANGSTROMS)

     1       H         71.69100000  *  165.23700000  * -45.36000000  *
     2       C         70.72700000  *  165.64400000  * -45.02500000  *
     3       O         70.67100000  *  166.69300000  * -44.40000000  *
     4       N         69.64800000  *  164.94600000  * -45.35400000  *
     5       H         69.74300000  *  164.08600000  * -45.86500000  *
     6       C         68.31800000  *  165.37700000  * -44.95100000  *
     7       H         68.30400000  *  166.44500000  * -44.75000000  *
     8       C         67.27900000  *  165.08100000  * -46.05800000  *
     9       H         67.27200000  *  164.02200000  * -46.29800000  *
    10       C         65.89200000  *  165.46600000  * -45.59200000  *
    11       H         65.46400000  *  166.22900000  * -46.24500000  *
    12       H         65.23700000  *  164.60600000  * -45.62700000  *
    13       H         65.87600000  *  165.89500000  * -44.58400000  *
    14       C         67.63700000  *  165.85600000  * -47.31700000  *
    15       H         68.59400000  *  165.52900000  * -47.70800000  *
    16       H         66.87900000  *  165.66900000  * -48.07700000  *
    17       H         67.68800000  *  166.92100000  * -47.10100000  *
    18       C         67.91500000  *  164.66400000  * -43.65700000  *
    19       O         67.55300000  *  165.30600000  * -42.67600000  *
    20       N         67.98400000  *  163.33800000  * -43.65800000  *
    21       H         68.28400000  *  162.85200000  * -44.48600000  *
    22       C         67.62300000  *  162.54400000  * -42.48700000  *
    23       H         67.90600000  *  163.07600000  * -41.58100000  *
    24       C         66.12800000  *  162.23500000  * -42.45900000  *
    25       H         65.92600000  *  161.47400000  * -43.20900000  *
    26       H         65.88500000  *  161.80700000  * -41.48800000  *
    27       C         65.21300000  *  163.39800000  * -42.74000000  *
    28       H         65.33100000  *  164.15700000  * -41.96400000  *
    29       H         65.45900000  *  163.81400000  * -43.69700000  *
    30       C         63.76600000  *  162.97200000  * -42.82400000  *
    31       O         63.44700000  *  162.11400000  * -43.67900000  *
    32       O         62.94800000  *  163.49400000  * -42.03400000  *
    33       C         68.34700000  *  161.22200000  * -42.57700000  *
    34       O         68.73000000  *  160.78800000  * -43.66100000  *
    35       N         68.52400000  *  160.57500000  * -41.43500000  *
    36       H         68.03000000  *  160.89100000  * -40.60600000  *
    37       C         69.17300000  *  159.28200000  * -41.42100000  *
    38       H         69.95100000  *  159.22100000  * -42.17800000  *
    39       C         69.75600000  *  159.01000000  * -40.03200000  *
    40       H         70.21900000  *  159.94300000  * -39.71800000  *
    41       H         68.96300000  *  158.79100000  * -39.31600000  *
    42       C         70.79800000  *  157.89600000  * -39.98300000  *
    43       H         70.31100000  *  156.94100000  * -40.17400000  *
    44       H         71.53800000  *  158.07300000  * -40.76900000  *
    45       C         71.50100000  *  157.83200000  * -38.61800000  *
    46       H         70.74900000  *  157.59000000  * -37.86000000  *
    47       H         72.23100000  *  157.01800000  * -38.63800000  *
    48       C         72.18600000  *  159.16200000  * -38.26900000  *
    49       H         72.83200000  *  159.42500000  * -39.10900000  *
    50       H         71.41200000  *  159.93100000  * -38.15600000  *
    51       N         73.00000000  *  159.10500000  * -37.02500000  *
    52       H         73.70000000  *  158.37000000  * -37.07400000  *
    53       H         73.43800000  *  159.98800000  * -36.79300000  *
    54       H         72.39100000  *  158.85400000  * -36.25100000  *
    55       C         68.06200000  *  158.28700000  * -41.74800000  *
    56       O         67.16300000  *  158.08100000  * -40.94600000  *
    57       N         68.06700000  *  157.71700000  * -42.95600000  *
    58       H         68.88400000  *  157.86800000  * -43.52900000  *
    59       C         67.06700000  *  156.73400000  * -43.42400000  *
    60       H         66.09800000  *  157.23400000  * -43.48100000  *
    61       C         67.43200000  *  156.21700000  * -44.83900000  *
    62       H         68.51500000  *  156.23000000  * -44.94300000  *
    63       C         66.96800000  *  154.77800000  * -45.12300000  *
    64       H         65.89200000  *  154.68500000  * -44.97600000  *
    65       H         67.23000000  *  154.50000000  * -46.13700000  *
    66       H         67.47700000  *  154.06800000  * -44.47100000  *
    67       C         66.84200000  *  157.19500000  * -45.87000000  *
    68       H         65.75500000  *  157.11700000  * -45.87100000  *
    69       H         67.09600000  *  158.19800000  * -45.54200000  *
    70       C         67.36100000  *  157.01400000  * -47.30200000  *
    71       H         67.02300000  *  156.07000000  * -47.71800000  *
    72       H         66.98300000  *  157.82000000  * -47.93100000  *
    73       H         68.44700000  *  157.03700000  * -47.31400000  *
    74       C         66.88800000  *  155.59100000  * -42.42400000  *
    75       O         65.76100000  *  155.22100000  * -42.09000000  *
    76       N         68.00300000  *  155.02800000  * -41.96200000  *
    77       H         68.90000000  *  155.37500000  * -42.27900000  *
    78       C         67.99100000  *  153.85100000  * -41.11000000  *
    79       H         67.50500000  *  154.10300000  * -40.16700000  *
    80       H         67.42300000  *  153.05600000  * -41.59300000  *
    81       C         69.38700000  *  153.32700000  * -40.81600000  *
    82       O         70.36500000  *  153.62200000  * -41.50800000  *
    83       N         69.45900000  *  152.53800000  * -39.75500000  *
    84       H         68.60300000  *  152.33100000  * -39.25800000  *
    85       C         70.68200000  *  151.91300000  * -39.27300000  *
    86       H         71.52200000  *  152.57300000  * -39.49000000  *
    87       C         70.57500000  *  151.75500000  * -37.74700000  *
    88       H         69.72100000  *  151.12200000  * -37.50400000  *
    89       H         71.48400000  *  151.28400000  * -37.39600000  *
    90       C         70.44700000  *  153.10700000  * -37.02300000  *
    91       H         71.29900000  *  153.73100000  * -37.30400000  *
    92       H         69.53900000  *  153.61800000  * -37.35200000  *
    93       C         70.39500000  *  152.95200000  * -35.49500000  *
    94       O         69.55200000  *  152.18300000  * -34.98000000  *
    95       O         71.17100000  *  153.63900000  * -34.79100000  *
    96       C         70.90100000  *  150.58900000  * -40.03000000  *
    97       O         70.12600000  *  149.64100000  * -39.88000000  *
    98       N         71.87300000  *  150.57300000  * -40.95000000  *
    99       H         72.51800000  *  151.35200000  * -40.99100000  *
   100       C         71.93700000  *  149.60300000  * -42.05000000  *
   101       H         70.92300000  *  149.34300000  * -42.35700000  *
   102       H         72.41700000  *  150.09400000  * -42.89600000  *
   103       C         72.69400000  *  148.29900000  * -41.77300000  *
   104       O         73.10600000  *  147.99300000  * -40.65500000  *
   105       N         72.90300000  *  147.52400000  * -42.84100000  *
   106       H         72.48700000  *  147.80000000  * -43.72100000  *
   107       C         73.67800000  *  146.26600000  * -42.86200000  *
   108       H         73.40500000  *  145.66600000  * -41.99300000  *
   109       C         73.35100000  *  145.45400000  * -44.12700000  *
   110       H         74.10000000  *  144.67600000  * -44.27400000  *
   111       C         71.98500000  *  144.79300000  * -44.00100000  *
   112       H         71.20400000  *  145.55000000  * -43.91300000  *
   113       H         71.80200000  *  144.17500000  * -44.87900000  *
   114       H         71.99200000  *  144.15000000  * -43.12200000  *
   115       O         73.33700000  *  146.30800000  * -45.24700000  *
   116       H         72.97000000  *  145.79200000  * -46.00200000  *
   117       C         75.19200000  *  146.45600000  * -42.80500000  *
   118       O         75.85700000  *  145.66100000  * -42.14900000  *
   119       N         75.72700000  *  147.49400000  * -43.46300000  *
   120       H         75.08800000  *  148.03600000  * -44.02300000  *
   121       C         77.17500000  *  147.72600000  * -43.65200000  *
   122       H         77.73200000  *  147.10200000  * -42.95200000  *
   123       C         77.56700000  *  147.30200000  * -45.08100000  *
   124       H         77.07000000  *  147.95800000  * -45.79600000  *
   125       H         78.64300000  *  147.43200000  * -45.21000000  *
   126       C         77.24600000  *  145.85900000  * -45.40800000  *
   127       C         77.82300000  *  144.84400000  * -44.62600000  *
   128       H         78.49700000  *  145.09300000  * -43.81700000  *
   129       C         77.50700000  *  143.50200000  * -44.87900000  *
   130       H         77.93100000  *  142.73900000  * -44.25100000  *
   131       C         76.64100000  *  143.16100000  * -45.93800000  *
   132       O         76.40000000  *  141.85300000  * -46.21000000  *
   133       H         77.09500000  *  141.31200000  * -45.80200000  *
   134       C         76.05500000  *  144.17900000  * -46.71900000  *
   135       H         75.36700000  *  143.92300000  * -47.51000000  *
   136       C         76.36000000  *  145.52700000  * -46.45300000  *
   137       H         75.90400000  *  146.30500000  * -47.04800000  *
   138       C         77.62700000  *  149.17100000  * -43.37600000  *
   139       O         78.73600000  *  149.56000000  * -43.74400000  *
   140       N         76.77700000  *  149.97600000  * -42.73800000  *
   141       H         75.89700000  *  149.59900000  * -42.41700000  *
   142       C         77.01700000  *  151.39100000  * -42.46200000  *
   143       H         77.60100000  *  151.49300000  * -41.54900000  *
   144       H         77.59200000  *  151.81900000  * -43.27300000  *
   145       C         75.71000000  *  152.16700000  * -42.29800000  *
   146       O         74.66300000  *  151.56600000  * -42.03800000  *
   147       N         75.75500000  *  153.49500000  * -42.44900000  *
   148       H         76.58800000  *  153.89400000  * -42.85900000  *
   149       C         74.59200000  *  154.32600000  * -42.21200000  *
   150       H         73.82600000  *  153.78000000  * -41.65800000  *
   151       C         74.95900000  *  155.54800000  * -41.37000000  *
   152       H         75.70700000  *  156.13900000  * -41.89300000  *
   153       C         73.73100000  *  156.40900000  * -41.13300000  *
   154       H         72.94300000  *  155.80300000  * -40.68200000  *
   155       H         73.98600000  *  157.21200000  * -40.45000000  *
   156       H         73.36800000  *  156.84900000  * -42.06500000  *
   157       C         75.54500000  *  155.09600000  * -40.05300000  *
   158       H         76.46000000  *  154.52800000  * -40.19800000  *
   159       H         75.77700000  *  155.95300000  * -39.42300000  *
   160       H         74.80500000  *  154.48400000  * -39.53200000  *
   161       C         74.01900000  *  154.79200000  * -43.53700000  *
   162       O         74.76100000  *  155.18400000  * -44.43700000  *
   163       N         72.70000000  *  154.65200000  * -43.67200000  *
   164       H         72.17100000  *  154.30800000  * -42.87900000  *
   165       C         71.92400000  *  155.10500000  * -44.82800000  *
   166       H         72.58300000  *  155.16300000  * -45.69200000  *
   167       C         70.77100000  *  154.13500000  * -45.16300000  *
   168       H         69.93500000  *  154.32500000  * -44.49100000  *
   169       C         70.30600000  *  154.36900000  * -46.60600000  *
   170       H         71.11100000  *  154.14700000  * -47.30500000  *
   171       H         69.45500000  *  153.72400000  * -46.82800000  *
   172       H         70.00100000  *  155.40500000  * -46.74200000  *
   173       C         71.14200000  *  152.65600000  * -45.00700000  *
   174       H         71.34900000  *  152.42800000  * -43.96100000  *
   175       H         70.29700000  *  152.04100000  * -45.31500000  *
   176       H         72.01500000  *  152.42000000  * -45.61100000  *
   177       C         71.36600000  *  156.49300000  * -44.52800000  *
   178       O         70.65800000  *  156.65300000  * -43.52900000  *
   179       N         71.62500000  *  157.49000000  * -45.37400000  *
   180       H         72.23900000  *  157.32200000  * -46.16900000  *
   181       C         71.01800000  *  158.79600000  * -45.21900000  *
   182       H         70.37900000  *  158.84300000  * -44.33800000  *
   183       C         72.10000000  *  159.86100000  * -45.06900000  *
   184       H         72.79900000  *  159.78100000  * -45.90500000  *
   185       H         71.63400000  *  160.84400000  * -45.14300000  *
   186       C         72.87100000  *  159.84300000  * -43.76800000  *
   187       C         72.34700000  *  160.43100000  * -42.61900000  *
   188       H         71.37700000  *  160.90600000  * -42.66800000  *
   189       C         73.06400000  *  160.45200000  * -41.42500000  *
   190       H         72.63300000  *  160.94600000  * -40.56800000  *
   191       C         74.33000000  *  159.87400000  * -41.37100000  *
   192       O         75.04700000  *  159.90100000  * -40.18700000  *
   193       H         74.69700000  *  160.54100000  * -39.56800000  *
   194       C         74.87500000  *  159.27800000  * -42.50300000  *
   195       H         75.78500000  *  158.71900000  * -42.41900000  *
   196       C         74.14000000  *  159.26700000  * -43.69600000  *
   197       H         74.51800000  *  158.73300000  * -44.56500000  *
   198       C         70.16700000  *  159.17400000  * -46.42900000  *
   199       O         70.41800000  *  158.72400000  * -47.55600000  *
   200       N         69.02600000  *  159.82800000  * -46.21200000  *
   201       H         68.83700000  *  160.13400000  * -45.26400000  *
   202       C         68.29400000  *  160.50700000  * -47.28200000  *
   203       H         68.28500000  *  159.90400000  * -48.19200000  *
   204       C         66.84900000  *  160.83100000  * -46.85200000  *
   205       H         66.33000000  *  159.90800000  * -46.60800000  *
   206       H         66.86300000  *  161.45800000  * -45.95800000  *
   207       C         66.04500000  *  161.53500000  * -47.95700000  *
   208       H         66.51900000  *  162.48300000  * -48.21400000  *
   209       H         66.02700000  *  160.90000000  * -48.84400000  *
   210       C         64.60500000  *  161.80500000  * -47.49000000  *
   211       H         64.15100000  *  160.87000000  * -47.15600000  *
   212       H         64.63000000  *  162.50000000  * -46.64900000  *
   213       C         63.76500000  *  162.39600000  * -48.62900000  *
   214       H         64.28200000  *  163.27600000  * -49.02700000  *
   215       H         63.69700000  *  161.65200000  * -49.43100000  *
   216       N         62.40200000  *  162.77800000  * -48.17300000  *
   217       H         62.43900000  *  163.48500000  * -47.45300000  *
   218       H         61.85400000  *  163.15700000  * -48.93400000  *
   219       H         61.89900000  *  161.98600000  * -47.79900000  *
   220       C         69.10300000  *  161.76300000  * -47.50900000  *
   221       O         69.33300000  *  162.49600000  * -46.55100000  *
   222       N         69.55500000  *  162.00600000  * -48.72500000  *
   223       H         69.34400000  *  161.34200000  * -49.46700000  *
   224       C         70.34900000  *  163.18200000  * -49.01700000  *
   225       H         70.22500000  *  163.93500000  * -48.24000000  *
   226       C         71.81400000  *  162.79200000  * -49.07000000  *
   227       H         71.97800000  *  162.06700000  * -49.86400000  *
   228       H         72.42900000  *  163.67700000  * -49.23900000  *
   229       H         72.10500000  *  162.33200000  * -48.12600000  *
   230       C         69.94400000  *  163.83800000  * -50.32200000  *
   231       O         69.22100000  *  163.25100000  * -51.12800000  *
   232       N         70.40700000  *  165.06400000  * -50.52400000  *
   233       H         70.93200000  *  165.53000000  * -49.79600000  *
   234       C         70.10800000  *  165.77900000  * -51.74600000  *
   235       H         69.54100000  *  165.15900000  * -52.44400000  *
   236       H         69.52200000  *  166.69100000  * -51.53000000  *
   237       H         71.05900000  *  166.04700000  * -52.23900000  *
   238       H         68.08600000  *  164.80700000  * -56.55000000  *
   239       C         68.21200000  *  164.39600000  * -55.53600000  *
   240       O         69.28600000  *  164.50800000  * -54.94200000  *
   241       N         67.13500000  *  163.82300000  * -55.01100000  *
   242       H         66.34000000  *  163.66800000  * -55.61500000  *
   243       C         67.13600000  *  163.21200000  * -53.68800000  *
   244       H         67.86300000  *  163.70700000  * -53.05000000  *
   245       C         65.75500000  *  163.32300000  * -53.02900000  *
   246       H         64.97700000  *  163.06900000  * -53.75000000  *
   247       C         65.64800000  *  162.36600000  * -51.85200000  *
   248       H         66.47200000  *  162.51800000  * -51.15200000  *
   249       H         64.69700000  *  162.53800000  * -51.34700000  *
   250       H         65.65200000  *  161.33900000  * -52.20000000  *
   251       C         65.54000000  *  164.75000000  * -52.56600000  *
   252       H         65.62600000  *  165.42400000  * -53.41600000  *
   253       H         64.53500000  *  164.85100000  * -52.15900000  *
   254       H         66.28400000  *  165.00300000  * -51.81000000  *
   255       C         67.52600000  *  161.76000000  * -53.84700000  *
   256       O         66.97900000  *  161.02800000  * -54.68200000  *
   257       N         68.49600000  *  161.34900000  * -53.04800000  *
   258       H         68.91100000  *  161.99700000  * -52.39100000  *
   259       C         69.01100000  *  159.99200000  * -53.10200000  *
   260       H         68.34600000  *  159.34100000  * -53.67900000  *
   261       C         70.37400000  *  159.97400000  * -53.81600000  *
   262       H         70.77500000  *  158.96500000  * -53.87500000  *
   263       C         70.21400000  *  160.50700000  * -55.21300000  *
   264       H         69.95700000  *  161.56600000  * -55.19000000  *
   265       H         71.15100000  *  160.39100000  * -55.75600000  *
   266       H         69.44200000  *  159.95000000  * -55.73600000  *
   267       C         71.37900000  *  160.85000000  * -53.05700000  *
   268       H         71.56500000  *  160.44500000  * -52.06400000  *
   269       H         72.31500000  *  160.84900000  * -53.61300000  *
   270       H         71.03600000  *  161.88400000  * -52.98400000  *
   271       C         69.19200000  *  159.37200000  * -51.72900000  *
   272       O         69.02000000  *  160.03600000  * -50.68600000  *
   273       N         69.38300000  *  158.05900000  * -51.70200000  *
   274       H         69.45600000  *  157.56300000  * -52.58600000  *
   275       C         69.76000000  *  157.32500000  * -50.51000000  *
   276       H         69.48400000  *  157.89100000  * -49.62300000  *
   277       C         69.00000000  *  156.00700000  * -50.46400000  *
   278       H         69.21200000  *  155.43400000  * -51.36300000  *
   279       H         69.30100000  *  155.43500000  * -49.58700000  *
   280       H         67.93300000  *  156.21700000  * -50.40500000  *
   281       C         71.27700000  *  157.14200000  * -50.53800000  *
   282       O         71.81000000  *  156.46300000  * -51.42200000  *
   283       N         71.97000000  *  157.79100000  * -49.60300000  *
   284       H         71.44500000  *  158.28300000  * -48.88900000  *
   285       C         73.41300000  *  157.73400000  * -49.53500000  *
   286       H         73.80300000  *  157.43200000  * -50.50200000  *
   287       C         73.96100000  *  159.11400000  * -49.18200000  *
   288       H         73.49200000  *  159.84000000  * -49.85100000  *
   289       H         73.62800000  *  159.35800000  * -48.16900000  *
   290       C         75.47300000  *  159.31600000  * -49.26600000  *
   291       H         75.96900000  *  158.63700000  * -48.57100000  *
   292       C         75.94900000  *  159.02000000  * -50.68400000  *
   293       H         75.44100000  *  159.71800000  * -51.34800000  *
   294       H         77.02400000  *  159.18800000  * -50.76300000  *
   295       H         75.74700000  *  157.98700000  * -50.96800000  *
   296       C         75.80400000  *  160.74000000  * -48.87900000  *
   297       H         75.43700000  *  160.94600000  * -47.87600000  *
   298       H         76.88200000  *  160.87900000  * -48.92200000  *
   299       H         75.32000000  *  161.42900000  * -49.57600000  *
   300       C         73.82100000  *  156.71600000  * -48.48500000  *
   301       O         73.39600000  *  156.78100000  * -47.33400000  *
   302       N         74.65300000  *  155.75800000  * -48.88400000  *
   303       H         74.89500000  *  155.73700000  * -49.87200000  *
   304       C         75.13000000  *  154.64200000  * -48.05800000  *
   305       H         74.60900000  *  154.63300000  * -47.09900000  *
   306       C         74.82400000  *  153.33800000  * -48.82900000  *
   307       H         74.26800000  *  153.57700000  * -49.73800000  *
   308       H         75.75200000  *  152.86200000  * -49.14600000  *
   309       C         73.98500000  *  152.30600000  * -48.07500000  *
   310       H         73.14300000  *  152.80000000  * -47.59200000  *
   311       H         73.58100000  *  151.62600000  * -48.82500000  *
   312       C         74.80400000  *  151.50800000  * -47.04300000  *
   313       H         75.81100000  *  151.32800000  * -47.42100000  *
   314       H         74.89300000  *  152.10300000  * -46.13000000  *
   315       C         74.14700000  *  150.15600000  * -46.71300000  *
   316       H         74.68000000  *  149.71600000  * -45.86300000  *
   317       H         73.11800000  *  150.34400000  * -46.39000000  *
   318       N         74.17200000  *  149.21600000  * -47.87600000  *
   319       H         75.11500000  *  148.95700000  * -48.14300000  *
   320       H         73.65800000  *  148.34200000  * -47.69200000  *
   321       H         73.71700000  *  149.61400000  * -48.68900000  *
   322       C         76.62400000  *  154.83500000  * -47.79400000  *
   323       O         77.41700000  *  154.65000000  * -48.70800000  *
   324       N         77.01700000  *  155.22600000  * -46.58100000  *
   325       H         76.29800000  *  155.26800000  * -45.86500000  *
   326       C         78.42200000  *  155.28900000  * -46.15900000  *
   327       H         79.06600000  *  155.59300000  * -46.98900000  *
   328       C         78.56700000  *  156.26000000  * -44.97900000  *
   329       H         78.02700000  *  155.87500000  * -44.10900000  *
   330       H         79.62500000  *  156.33900000  * -44.73000000  *
   331       C         78.01500000  *  157.64300000  * -45.34000000  *
   332       H         78.45100000  *  157.95800000  * -46.27300000  *
   333       H         76.93600000  *  157.57500000  * -45.50000000  *
   334       C         78.25100000  *  158.72500000  * -44.27900000  *
   335       H         77.97800000  *  159.68000000  * -44.73200000  *
   336       H         77.56000000  *  158.53300000  * -43.46900000  *
   337       C         79.67700000  *  158.85000000  * -43.70900000  *
   338       H         80.38400000  *  158.36300000  * -44.39700000  *
   339       H         79.95000000  *  159.91100000  * -43.68600000  *
   340       N         79.78800000  *  158.26900000  * -42.33500000  *
   341       H         79.63700000  *  157.26100000  * -42.37000000  *
   342       H         80.69600000  *  158.42600000  * -41.93200000  *
   343       H         79.10400000  *  158.64600000  * -41.70100000  *
   344       C         78.82300000  *  153.89100000  * -45.72900000  *
   345       O         78.09100000  *  153.31500000  * -44.93700000  *
   346       N         79.90700000  *  153.32000000  * -46.24700000  *
   347       H         80.40500000  *  153.76400000  * -47.01000000  *
   348       C         80.34300000  *  152.02200000  * -45.76800000  *
   349       H         79.49500000  *  151.49800000  * -45.35900000  *
   350       C         80.94400000  *  151.18600000  * -46.89500000  *
   351       H         81.78600000  *  151.78200000  * -47.16900000  *
   352       C         81.42400000  *  149.85200000  * -46.34500000  *
   353       H         80.65600000  *  149.35200000  * -45.75200000  *
   354       H         81.67900000  *  149.19900000  * -47.17900000  *
   355       H         82.34500000  *  149.95700000  * -45.76100000  *
   356       C         79.89700000  *  150.97600000  * -47.99700000  *
   357       H         79.60200000  *  151.87000000  * -48.50000000  *
   358       H         80.28300000  *  150.30500000  * -48.75000000  *
   359       C         78.59100000  *  150.36100000  * -47.52600000  *
   360       H         78.17700000  *  150.90100000  * -46.69000000  *
   361       H         77.89400000  *  150.33700000  * -48.36300000  *
   362       H         78.77100000  *  149.33300000  * -47.20900000  *
   363       C         81.33300000  *  152.07100000  * -44.61400000  *
   364       O         82.16700000  *  152.98000000  * -44.51900000  *
   365       N         81.21100000  *  151.07100000  * -43.74300000  *
   366       H         80.50300000  *  150.36100000  * -43.92800000  *
   367       C         82.04400000  *  150.90200000  * -42.55200000  *
   368       H         81.47500000  *  151.18100000  * -41.66300000  *
   369       H         82.35800000  *  149.86100000  * -42.45900000  *
   370       H         82.94700000  *  151.51400000  * -42.62000000  *
   371       H         81.25700000  *  144.04600000  * -57.89900000  *
   372       C         80.50000000  *  144.84100000  * -57.88800000  *
   373       O         79.71500000  *  144.99000000  * -58.82400000  *
   374       N         80.49900000  *  145.60300000  * -56.79700000  *
   375       H         81.28000000  *  145.52500000  * -56.16600000  *
   376       C         79.57000000  *  146.70600000  * -56.61200000  *
   377       H         78.57500000  *  146.34400000  * -56.42300000  *
   378       C         80.00500000  *  147.61000000  * -55.44200000  *
   379       H         80.89800000  *  148.18000000  * -55.68500000  *
   380       C         78.90600000  *  148.60800000  * -55.12500000  *
   381       H         77.92000000  *  148.14100000  * -55.17600000  *
   382       H         79.04500000  *  148.98700000  * -54.11600000  *
   383       H         78.93800000  *  149.43600000  * -55.83300000  *
   384       C         80.32100000  *  146.76200000  * -54.20900000  *
   385       H         81.19200000  *  146.13400000  * -54.40600000  *
   386       H         80.59400000  *  147.42200000  * -53.38900000  *
   387       C         79.18400000  *  145.87900000  * -53.76500000  *
   388       H         78.77800000  *  145.31100000  * -54.59400000  *
   389       H         79.50900000  *  145.12200000  * -53.06500000  *
   390       H         78.38800000  *  146.48300000  * -53.33500000  *
   391       C         79.54300000  *  147.54500000  * -57.87900000  *
   392       O         78.48200000  *  147.77900000  * -58.45100000  *
   393       N         80.72300000  *  147.98900000  * -58.30900000  *
   394       H         81.55800000  *  147.70100000  * -57.81200000  *
   395       C         80.85900000  *  148.80400000  * -59.51100000  *
   396       H         80.33900000  *  149.74600000  * -59.38600000  *
   397       H         81.92800000  *  148.98500000  * -59.72900000  *
   398       H         80.37800000  *  148.32200000  * -60.38100000  *
   399       H         78.96400000  *  146.08700000  * -61.65600000  *
   400       C         77.87300000  *  146.08700000  * -61.51600000  *
   401       O         77.11500000  *  145.89500000  * -62.46400000  *
   402       N         77.44600000  *  146.31800000  * -60.28000000  *
   403       H         78.13400000  *  146.42500000  * -59.54900000  *
   404       C         76.02800000  *  146.35200000  * -59.94500000  *
   405       H         75.53300000  *  145.47600000  * -60.35900000  *
   406       C         75.84100000  *  146.37400000  * -58.43100000  *
   407       H         76.20500000  *  147.30400000  * -58.01800000  *
   408       H         74.76300000  *  146.35700000  * -58.24200000  *
   409       C         76.47200000  *  145.22200000  * -57.65900000  *
   410       H         77.55000000  *  145.23900000  * -57.74900000  *
   411       C         76.08000000  *  145.34100000  * -56.19200000  *
   412       H         74.99900000  *  145.23000000  * -56.07700000  *
   413       H         76.57300000  *  144.55300000  * -55.62900000  *
   414       H         76.38500000  *  146.30900000  * -55.80100000  *
   415       C         75.99600000  *  143.89000000  * -58.23600000  *
   416       H         76.41500000  *  143.73000000  * -59.22900000  *
   417       H         76.32800000  *  143.07800000  * -57.59100000  *
   418       H         74.90500000  *  143.87400000  * -58.30500000  *
   419       C         75.32200000  *  147.55900000  * -60.54800000  *
   420       O         74.09500000  *  147.56800000  * -60.66200000  *
   421       N         76.08400000  *  148.63100000  * -60.82900000  *
   422       H         77.08200000  *  148.53500000  * -60.67700000  *
   423       C         75.60100000  *  149.83300000  * -61.53400000  *
   424       H         74.83700000  *  150.33500000  * -60.94100000  *
   425       H         76.43800000  *  150.53300000  * -61.75900000  *
   426       H         75.13800000  *  149.54900000  * -62.49200000  *
   427       H         62.79000000  *  145.77200000  * -59.27600000  *
   428       C         63.71000000  *  145.72000000  * -58.67500000  *
   429       O         63.77900000  *  145.02200000  * -57.66400000  *
   430       N         64.72400000  *  146.45200000  * -59.11400000  *
   431       H         64.63800000  *  147.05100000  * -59.92700000  *
   432       C         65.97100000  *  146.53500000  * -58.38100000  *
   433       H         65.88400000  *  146.09200000  * -57.38600000  *
   434       C         67.11600000  *  145.87700000  * -59.11400000  *
   435       H         67.33600000  *  146.42600000  * -60.03000000  *
   436       C         68.35100000  *  145.87800000  * -58.21400000  *
   437       H         68.14700000  *  145.31400000  * -57.31800000  *
   438       H         69.21000000  *  145.44500000  * -58.72400000  *
   439       H         68.64100000  *  146.89000000  * -57.94500000  *
   440       C         66.72800000  *  144.44400000  * -59.47800000  *
   441       H         66.54900000  *  143.87300000  * -58.56400000  *
   442       H         65.81500000  *  144.42400000  * -60.06800000  *
   443       C         67.77400000  *  143.72700000  * -60.29600000  *
   444       H         68.68300000  *  143.57700000  * -59.72200000  *
   445       H         67.37700000  *  142.75300000  * -60.59800000  *
   446       H         68.02300000  *  144.31300000  * -61.18000000  *
   447       C         66.29500000  *  148.01000000  * -58.22000000  *
   448       O         66.21200000  *  148.78000000  * -59.18400000  *
   449       N         66.54500000  *  148.44200000  * -56.98000000  *
   450       H         66.61100000  *  147.76000000  * -56.22900000  *
   451       C         66.88900000  *  149.83800000  * -56.68300000  *
   452       H         66.07500000  *  150.48600000  * -57.00900000  *
   453       C         67.10300000  *  150.04600000  * -55.17700000  *
   454       H         67.88800000  *  149.37200000  * -54.83000000  *
   455       C         67.51500000  *  151.48200000  * -54.83900000  *
   456       H         66.70800000  *  152.17800000  * -55.06900000  *
   457       H         67.75100000  *  151.53300000  * -53.77900000  *
   458       H         68.40200000  *  151.77500000  * -55.39600000  *
   459       C         65.82300000  *  149.75200000  * -54.39100000  *
   460       H         65.52700000  *  148.71300000  * -54.51000000  *
   461       H         66.01700000  *  149.92900000  * -53.33900000  *
   462       H         65.01600000  *  150.40100000  * -54.72600000  *
   463       C         68.14900000  *  150.21100000  * -57.45900000  *
   464       O         69.17400000  *  149.53500000  * -57.34300000  *
   465       N         68.08000000  *  151.28300000  * -58.25100000  *
   466       H         67.22500000  *  151.80400000  * -58.24500000  *
   467       C         69.18900000  *  151.69800000  * -59.08000000  *
   468       H         69.52500000  *  150.81900000  * -59.63900000  *
   469       C         68.73700000  *  152.76800000  * -60.08300000  *
   470       H         67.83400000  *  152.41100000  * -60.57900000  *
   471       H         68.47700000  *  153.68100000  * -59.53700000  *
   472       C         69.79100000  *  153.06900000  * -61.13100000  *
   473       H         70.72100000  *  153.35000000  * -60.64200000  *
   474       H         69.97400000  *  152.16800000  * -61.71600000  *
   475       C         69.35100000  *  154.17900000  * -62.08100000  *
   476       H         68.50200000  *  153.81400000  * -62.66100000  *
   477       H         69.02300000  *  155.05600000  * -61.52200000  *
   478       C         70.49800000  *  154.55900000  * -63.02400000  *
   479       H         71.33900000  *  154.89000000  * -62.40800000  *
   480       H         70.81900000  *  153.66100000  * -63.56600000  *
   481       N         70.11800000  *  155.62600000  * -63.99700000  *
   482       H         69.74700000  *  156.41600000  * -63.48300000  *
   483       H         70.92600000  *  155.93300000  * -64.52500000  *
   484       H         69.41500000  *  155.27800000  * -64.63600000  *
   485       C         70.36000000  *  152.21400000  * -58.25300000  *
   486       O         70.19400000  *  153.07400000  * -57.38700000  *
   487       N         71.53700000  *  151.64500000  * -58.50700000  *
   488       H         71.59600000  *  150.90400000  * -59.18600000  *
   489       C         72.75000000  *  152.07400000  * -57.83600000  *
   490       H         72.53800000  *  152.52600000  * -56.87100000  *
   491       C         73.72700000  *  150.91100000  * -57.67000000  *
   492       H         73.31500000  *  150.22100000  * -56.93700000  *
   493       H         73.77900000  *  150.36900000  * -58.62000000  *
   494       C         75.16700000  *  151.27300000  * -57.28800000  *
   495       H         75.65500000  *  151.80300000  * -58.10000000  *
   496       C         75.18300000  *  152.16500000  * -56.05900000  *
   497       H         74.60800000  *  151.72100000  * -55.25200000  *
   498       H         76.21000000  *  152.29600000  * -55.73500000  *
   499       H         74.78900000  *  153.14000000  * -56.31200000  *
   500       C         75.93300000  *  149.99400000  * -57.01300000  *
   501       H         75.98300000  *  149.42100000  * -57.93300000  *
   502       H         76.94600000  *  150.24200000  * -56.71200000  *
   503       H         75.43500000  *  149.41000000  * -56.23200000  *
   504       C         73.31900000  *  153.11300000  * -58.79500000  *
   505       O         73.76900000  *  152.77900000  * -59.89700000  *
   506       N         73.26700000  *  154.36900000  * -58.37800000  *
   507       H         72.92600000  *  154.57000000  * -57.44900000  *
   508       C         73.73400000  *  155.46600000  * -59.19700000  *
   509       H         73.47500000  *  155.26500000  * -60.23600000  *
   510       C         73.02500000  *  156.74200000  * -58.76000000  *
   511       H         73.45000000  *  157.06300000  * -57.80900000  *
   512       H         73.23600000  *  157.53300000  * -59.48700000  *
   513       C         71.51300000  *  156.60300000  * -58.58700000  *
   514       H         71.27400000  *  155.80900000  * -57.88500000  *
   515       C         70.97400000  *  157.88000000  * -58.01900000  *
   516       H         71.37000000  *  158.74600000  * -58.56000000  *
   517       H         69.88800000  *  157.89100000  * -58.09300000  *
   518       H         71.22100000  *  157.96000000  * -56.96600000  *
   519       C         70.85100000  *  156.29000000  * -59.92300000  *
   520       H         71.28300000  *  155.39700000  * -60.34200000  *
   521       H         69.78900000  *  156.14400000  * -59.75100000  *
   522       H         71.00300000  *  157.12700000  * -60.60700000  *
   523       C         75.24500000  *  155.67800000  * -59.15800000  *
   524       O         75.83900000  *  156.04700000  * -60.17600000  *
   525       N         75.86200000  *  155.44600000  * -57.99600000  *
   526       H         75.29500000  *  155.17900000  * -57.20400000  *
   527       C         77.30800000  *  155.64700000  * -57.82900000  *
   528       H         77.80800000  *  155.40400000  * -58.76600000  *
   529       C         77.60000000  *  157.11700000  * -57.51900000  *
   530       H         76.91700000  *  157.54400000  * -56.80300000  *
   531       H         78.58200000  *  157.17000000  * -57.04800000  *
   532       C         77.65600000  *  157.97500000  * -58.75600000  *
   533       O         78.67800000  *  157.91700000  * -59.48300000  *
   534       O         76.67400000  *  158.70400000  * -59.00000000  *
   535       C         77.97900000  *  154.81700000  * -56.73400000  *
   536       O         77.37100000  *  154.52100000  * -55.70400000  *
   537       N         79.24700000  *  154.47700000  * -56.96600000  *
   538       H         79.69800000  *  154.82400000  * -57.79800000  *
   539       C         80.06100000  *  153.73800000  * -56.00300000  *
   540       H         79.55400000  *  153.69900000  * -55.05200000  *
   541       C         80.36600000  *  152.29800000  * -56.50400000  *
   542       H         79.42700000  *  151.75200000  * -56.56200000  *
   543       C         80.98100000  *  152.34300000  * -57.88400000  *
   544       H         82.06600000  *  152.43300000  * -57.82100000  *
   545       H         80.74600000  *  151.41400000  * -58.37900000  *
   546       H         80.59600000  *  153.14500000  * -58.51000000  *
   547       C         81.29900000  *  151.58800000  * -55.53900000  *
   548       H         80.81100000  *  151.54900000  * -54.57200000  *
   549       H         81.47300000  *  150.57200000  * -55.87800000  *
   550       H         82.25900000  *  152.09200000  * -55.44900000  *
   551       C         81.36500000  *  154.53600000  * -55.81000000  *
   552       O         82.27000000  *  154.48900000  * -56.64700000  *
   553       N         81.45200000  *  155.28200000  * -54.71000000  *
   554       H         80.67600000  *  155.30400000  * -54.06400000  *
   555       C         82.62100000  *  156.11100000  * -54.44300000  *
   556       H         83.20500000  *  156.21800000  * -55.35800000  *
   557       H         82.32200000  *  157.12800000  * -54.14500000  *
   558       H         83.29700000  *  155.73900000  * -53.65600000  *
   559       H         84.58000000  *  155.17100000  * -47.07300000  *
   560       C         84.22500000  *  154.98400000  * -48.09100000  *
   561       O         84.63900000  *  155.65900000  * -49.04200000  *
   562       N         83.35800000  *  153.99100000  * -48.22200000  *
   563       H         83.13600000  *  153.42800000  * -47.41700000  *
   564       C         82.77600000  *  153.65100000  * -49.50600000  *
   565       H         83.37000000  *  154.04700000  * -50.31700000  *
   566       C         82.71900000  *  152.14000000  * -49.66000000  *
   567       H         83.74000000  *  151.87500000  * -49.95700000  *
   568       H         82.64400000  *  151.54600000  * -48.78400000  *
   569       C         81.82600000  *  151.61900000  * -50.77900000  *
   570       H         80.79100000  *  151.88400000  * -50.58700000  *
   571       C         82.25800000  *  152.23100000  * -52.09200000  *
   572       H         83.31100000  *  152.49100000  * -52.08900000  *
   573       H         82.09300000  *  151.51300000  * -52.88400000  *
   574       H         81.65400000  *  153.10900000  * -52.31200000  *
   575       C         81.89900000  *  150.09400000  * -50.82200000  *
   576       H         81.91300000  *  149.66400000  * -49.82700000  *
   577       H         81.05200000  *  149.70600000  * -51.39100000  *
   578       H         82.82500000  *  149.80300000  * -51.32100000  *
   579       C         81.36700000  *  154.23200000  * -49.54800000  *
   580       O         80.51800000  *  153.85700000  * -48.74500000  *
   581       N         81.13100000  *  155.16100000  * -50.46700000  *
   582       H         81.84500000  *  155.34800000  * -51.16200000  *
   583       C         79.82200000  *  155.78100000  * -50.60800000  *
   584       H         79.27400000  *  155.67000000  * -49.68700000  *
   585       C         79.96700000  *  157.27800000  * -50.86800000  *
   586       H         80.42300000  *  157.50400000  * -51.79700000  *
   587       H         78.95400000  *  157.66400000  * -50.98900000  *
   588       C         80.57600000  *  158.04300000  * -49.72300000  *
   589       C         79.79300000  *  158.48000000  * -48.65600000  *
   590       H         78.73500000  *  158.25400000  * -48.66900000  *
   591       C         80.35600000  *  159.18600000  * -47.59400000  *
   592       H         79.75300000  *  159.56200000  * -46.79700000  *
   593       C         81.71600000  *  159.45200000  * -47.58700000  *
   594       O         82.27600000  *  160.12500000  * -46.52100000  *
   595       H         83.20600000  *  160.30800000  * -46.74500000  *
   596       C         82.51400000  *  159.02600000  * -48.63700000  *
   597       H         83.58200000  *  159.23300000  * -48.65000000  *
   598       C         81.94100000  *  158.32800000  * -49.69800000  *
   599       H         82.57400000  *  157.98100000  * -50.50200000  *
   600       C         79.04800000  *  155.15800000  * -51.76500000  *
   601       O         79.54400000  *  155.08000000  * -52.88800000  *
   602       N         77.86300000  *  154.62200000  * -51.49500000  *
   603       H         77.53800000  *  154.64100000  * -50.53400000  *
   604       C         76.98200000  *  154.05500000  * -52.51400000  *
   605       H         77.50700000  *  154.00500000  * -53.46100000  *
   606       C         76.54900000  *  152.62300000  * -52.15900000  *
   607       H         75.86000000  *  152.66700000  * -51.32400000  *
   608       H         76.00300000  *  152.22000000  * -53.01300000  *
   609       C         77.68500000  *  151.65200000  * -51.79900000  *
   610       H         78.19300000  *  151.99200000  * -50.89700000  *
   611       C         77.11600000  *  150.25800000  * -51.53800000  *
   612       H         76.63300000  *  149.87300000  * -52.43700000  *
   613       H         77.92000000  *  149.58000000  * -51.24700000  *
   614       H         76.38900000  *  150.30400000  * -50.72900000  *
   615       C         78.69900000  *  151.53700000  * -52.93100000  *
   616       H         79.21800000  *  152.48300000  * -53.05300000  *
   617       H         79.43400000  *  150.77400000  * -52.68500000  *
   618       H         78.19200000  *  151.27700000  * -53.86100000  *
   619       C         75.78600000  *  154.98500000  * -52.67200000  *
   620       O         75.10200000  *  155.25900000  * -51.68200000  *
   621       N         75.54700000  *  155.50800000  * -53.87800000  *
   622       H         76.14500000  *  155.25500000  * -54.66000000  *
   623       C         74.40900000  *  156.37500000  * -54.09400000  *
   624       H         73.97600000  *  156.70200000  * -53.15000000  *
   625       C         74.83400000  *  157.63700000  * -54.81800000  *
   626       H         75.25500000  *  157.34500000  * -55.76600000  *
   627       C         73.61400000  *  158.52200000  * -55.10900000  *
   628       H         73.11700000  *  158.76900000  * -54.17500000  *
   629       H         73.94100000  *  159.43100000  * -55.61500000  *
   630       H         72.91600000  *  158.00900000  * -55.76200000  *
   631       C         75.84000000  *  158.38200000  * -53.94900000  *
   632       H         75.28100000  *  158.78400000  * -53.13000000  *
   633       H         76.65600000  *  157.75800000  * -53.60500000  *
   634       H         76.26100000  *  159.20400000  * -54.52500000  *
   635       C         73.31400000  *  155.64400000  * -54.85300000  *
   636       O         73.49500000  *  155.22100000  * -55.99400000  *
   637       N         72.19800000  *  155.40600000  * -54.16800000  *
   638       H         72.12900000  *  155.76100000  * -53.21800000  *
   639       C         71.01500000  *  154.74300000  * -54.70900000  *
   640       H         71.26700000  *  154.27300000  * -55.65500000  *
   641       C         70.54500000  *  153.65600000  * -53.73800000  *
   642       H         70.37800000  *  154.10400000  * -52.76000000  *
   643       H         69.58200000  *  153.28300000  * -54.08300000  *
   644       C         71.48700000  *  152.47700000  * -53.58400000  *
   645       C         71.39500000  *  151.37900000  * -54.46100000  *
   646       H         70.67700000  *  151.38600000  * -55.26800000  *
   647       C         72.23100000  *  150.26100000  * -54.28700000  *
   648       H         72.15000000  *  149.41500000  * -54.95700000  *
   649       C         73.16700000  *  150.24000000  * -53.24000000  *
   650       H         73.81000000  *  149.37900000  * -53.10600000  *
   651       C         73.26500000  *  151.33700000  * -52.36600000  *
   652       H         73.97600000  *  151.31400000  * -51.55500000  *
   653       C         72.43100000  *  152.45700000  * -52.53900000  *
   654       H         72.50700000  *  153.29600000  * -51.86100000  *
   655       C         69.88900000  *  155.75200000  * -54.95600000  *
   656       O         69.74000000  *  156.72000000  * -54.20900000  *
   657       N         69.07600000  *  155.53600000  * -55.99200000  *
   658       H         69.23700000  *  154.71400000  * -56.56500000  *
   659       C         67.81500000  *  156.27900000  * -56.15700000  *
   660       H         68.05900000  *  157.32900000  * -56.32500000  *
   661       C         67.04400000  *  155.77400000  * -57.39000000  *
   662       H         66.17200000  *  156.41500000  * -57.52300000  *
   663       H         67.68100000  *  155.87200000  * -58.27100000  *
   664       C         66.57800000  *  154.31400000  * -57.26800000  *
   665       H         67.45400000  *  153.67400000  * -57.15500000  *
   666       H         65.96800000  *  154.20200000  * -56.37600000  *
   667       C         65.73000000  *  153.82000000  * -58.44300000  *
   668       O         65.26000000  *  154.63200000  * -59.27300000  *
   669       O         65.49700000  *  152.59200000  * -58.50200000  *
   670       C         66.95200000  *  156.19000000  * -54.88000000  *
   671       O         66.85000000  *  155.12300000  * -54.27700000  *
   672       N         66.33800000  *  157.28900000  * -54.43800000  *
   673       H         66.40900000  *  158.14900000  * -54.96400000  *
   674       C         65.45300000  *  157.26800000  * -53.26800000  *
   675       H         65.92000000  *  156.66600000  * -52.48700000  *
   676       C         65.30500000  *  158.69100000  * -52.72100000  *
   677       H         66.29300000  *  159.06100000  * -52.44800000  *
   678       H         64.91200000  *  159.33600000  * -53.50800000  *
   679       C         64.40800000  *  158.79900000  * -51.50400000  *
   680       C         63.05900000  *  159.17800000  * -51.64800000  *
   681       H         62.65900000  *  159.40100000  * -52.62800000  *
   682       C         62.22500000  *  159.26000000  * -50.51800000  *
   683       H         61.18800000  *  159.54600000  * -50.63300000  *
   684       C         62.73800000  *  158.96500000  * -49.24300000  *
   685       H         62.09400000  *  159.01600000  * -48.37500000  *
   686       C         64.08800000  *  158.60000000  * -49.09700000  *
   687       H         64.48400000  *  158.37400000  * -48.11700000  *
   688       C         64.92100000  *  158.51300000  * -50.22600000  *
   689       H         65.95600000  *  158.21900000  * -50.11200000  *
   690       C         64.08600000  *  156.64400000  * -53.59500000  *
   691       O         63.43500000  *  157.05600000  * -54.56000000  *
   692       N         63.62200000  *  155.70100000  * -52.76700000  *
   693       H         64.22900000  *  155.39100000  * -52.01500000  *
   694       C         62.23800000  *  155.20000000  * -52.77000000  *
   695       H         61.67800000  *  155.69300000  * -53.56700000  *
   696       C         62.18800000  *  153.68100000  * -53.01500000  *
   697       H         63.02800000  *  153.19500000  * -52.52100000  *
   698       H         61.27100000  *  153.30400000  * -52.56000000  *
   699       C         62.15600000  *  153.30900000  * -54.50800000  *
   700       H         61.53600000  *  154.02700000  * -55.04500000  *
   701       C         63.55300000  *  153.29600000  * -55.12400000  *
   702       H         64.20200000  *  152.61700000  * -54.57300000  *
   703       H         63.49900000  *  152.99300000  * -56.16700000  *
   704       H         63.97900000  *  154.29600000  * -55.08500000  *
   705       C         61.53000000  *  151.92800000  * -54.70200000  *
   706       H         60.55200000  *  151.88900000  * -54.21900000  *
   707       H         61.38400000  *  151.74000000  * -55.76300000  *
   708       H         62.17000000  *  151.15700000  * -54.27800000  *
   709       C         61.52200000  *  155.56500000  * -51.46400000  *
   710       O         62.13700000  *  155.69200000  * -50.40900000  *
   711       N         60.21000000  *  155.77700000  * -51.55100000  *
   712       H         59.76500000  *  155.64800000  * -52.45200000  *
   713       C         59.42700000  *  156.48000000  * -50.53300000  *
   714       H         59.94100000  *  157.41500000  * -50.31000000  *
   715       C         58.05900000  *  156.84300000  * -51.12700000  *
   716       H         57.43600000  *  155.94800000  * -51.17100000  *
   717       H         57.59200000  *  157.55800000  * -50.45500000  *
   718       C         58.10700000  *  157.45800000  * -52.50700000  *
   719       N         58.28600000  *  156.75300000  * -53.70200000  *
   720       C         58.29600000  *  157.67600000  * -54.67900000  *
   721       H         58.42100000  *  157.46500000  * -55.73500000  *
   722       N         58.13700000  *  158.90500000  * -54.16000000  *
   723       H         58.11400000  *  159.76600000  * -54.69900000  *
   724       C         58.02100000  *  158.78900000  * -52.79200000  *
   725       H         57.89600000  *  159.59300000  * -52.07800000  *
   726       C         59.27100000  *  155.74800000  * -49.18700000  *
   727       O         59.14800000  *  156.41100000  * -48.15700000  *
   728       N         59.26700000  *  154.40800000  * -49.17400000  *
   729       H         59.36700000  *  153.92100000  * -50.05700000  *
   730       C         59.01800000  *  153.58500000  * -47.97800000  *
   731       H         59.53300000  *  154.04200000  * -47.13100000  *
   732       C         57.49900000  *  153.59500000  * -47.68900000  *
   733       H         57.19100000  *  154.62800000  * -47.52200000  *
   734       H         56.95800000  *  153.22200000  * -48.56000000  *
   735       C         57.08800000  *  152.77000000  * -46.45900000  *
   736       H         56.97600000  *  151.72800000  * -46.75300000  *
   737       H         57.86900000  *  152.84000000  * -45.70200000  *
   738       C         55.78800000  *  153.25100000  * -45.82400000  *
   739       O         55.78200000  *  153.96300000  * -44.83300000  *
   740       N         54.64100000  *  152.88100000  * -46.35400000  *
   741       H         53.80400000  *  153.21500000  * -45.90200000  *
   742       H         54.61800000  *  152.32000000  * -47.18600000  *
   743       C         59.58000000  *  152.15600000  * -48.14200000  *
   744       O         59.73900000  *  151.68300000  * -49.26500000  *
   745       N         59.88200000  *  151.45900000  * -47.03800000  *
   746       H         59.72600000  *  151.88700000  * -46.13900000  *
   747       C         60.25600000  *  150.03400000  * -47.04500000  *
   748       H         60.58500000  *  149.77200000  * -48.04600000  *
   749       C         61.44600000  *  149.76400000  * -46.10900000  *
   750       H         61.76300000  *  148.72900000  * -46.25500000  *
   751       H         62.28200000  *  150.39700000  * -46.40400000  *
   752       C         61.12700000  *  149.97700000  * -44.62600000  *
   753       O         60.32200000  *  149.19600000  * -44.07800000  *
   754       O         61.70300000  *  150.90700000  * -44.01600000  *
   755       C         59.06900000  *  149.10900000  * -46.71100000  *
   756       O         58.05100000  *  149.53800000  * -46.15200000  *
   757       N         59.19100000  *  147.81900000  * -47.04800000  *
   758       H         60.03800000  *  147.50900000  * -47.52500000  *
   759       C         58.10100000  *  146.88000000  * -46.84100000  *
   760       H         57.21800000  *  147.32500000  * -47.29300000  *
   761       C         58.41200000  *  145.57700000  * -47.59200000  *
   762       H         58.61300000  *  145.80400000  * -48.64400000  *
   763       H         59.28800000  *  145.12100000  * -47.15800000  *
   764       C         57.28700000  *  144.52700000  * -47.51900000  *
   765       H         57.05600000  *  144.28000000  * -46.48700000  *
   766       C         56.00700000  *  145.04400000  * -48.19600000  *
   767       H         56.23500000  *  145.37800000  * -49.20200000  *
   768       H         55.26800000  *  144.24500000  * -48.23100000  *
   769       H         55.59500000  *  145.87000000  * -47.62900000  *
   770       C         57.76800000  *  143.24900000  * -48.17500000  *
   771       H         58.61500000  *  142.85400000  * -47.62000000  *
   772       H         56.97300000  *  142.50400000  * -48.17100000  *
   773       H         58.06400000  *  143.44500000  * -49.20700000  *
   774       C         57.76400000  *  146.61300000  * -45.36900000  *
   775       O         56.60900000  *  146.37600000  * -45.03000000  *
   776       N         58.75700000  *  146.67700000  * -44.48800000  *
   777       H         59.64000000  *  147.08600000  * -44.79000000  *
   778       C         58.49100000  *  146.46700000  * -43.07300000  *
   779       H         57.97900000  *  145.55100000  * -42.87200000  *
   780       C         59.78200000  *  146.47800000  * -42.25400000  *
   781       H         60.44800000  *  145.70000000  * -42.62000000  *
   782       H         60.28600000  *  147.44000000  * -42.35600000  *
   783       C         59.49200000  *  146.22900000  * -40.76500000  *
   784       H         58.94200000  *  147.08300000  * -40.37400000  *
   785       H         58.87100000  *  145.33200000  * -40.67600000  *
   786       C         60.74500000  *  146.03800000  * -39.93500000  *
   787       H         61.36100000  *  145.25900000  * -40.37900000  *
   788       H         61.30800000  *  146.97100000  * -39.90700000  *
   789       C         60.37600000  *  145.60700000  * -38.51700000  *
   790       H         59.98500000  *  144.58900000  * -38.53700000  *
   791       H         61.27900000  *  145.61300000  * -37.90300000  *
   792       N         59.34600000  *  146.53100000  * -37.94700000  *
   793       H         58.44600000  *  146.48100000  * -38.44300000  *
   794       H         59.09000000  *  146.27800000  * -37.00400000  *
   795       H         59.61300000  *  147.50600000  * -37.97800000  *
   796       C         57.55800000  *  147.53800000  * -42.51200000  *
   797       O         56.61300000  *  147.23400000  * -41.78300000  *
   798       N         57.83800000  *  148.81000000  * -42.80800000  *
   799       H         58.67500000  *  148.99500000  * -43.36700000  *
   800       C         57.02000000  *  149.93600000  * -42.34400000  *
   801       H         56.91600000  *  149.86500000  * -41.25900000  *
   802       C         57.73200000  *  151.25700000  * -42.67300000  *
   803       H         58.75400000  *  151.20500000  * -42.29300000  *
   804       H         57.77100000  *  151.39200000  * -43.75500000  *
   805       C         57.03000000  *  152.45900000  * -42.02400000  *
   806       H         56.04600000  *  152.59000000  * -42.47500000  *
   807       H         56.90100000  *  152.26700000  * -40.95700000  *
   808       C         57.84900000  *  153.74600000  * -42.19700000  *
   809       H         58.80400000  *  153.63300000  * -41.68000000  *
   810       H         58.03800000  *  153.92100000  * -43.25700000  *
   811       C         57.08200000  *  154.93500000  * -41.60600000  *
   812       H         56.13700000  *  155.04500000  * -42.14700000  *
   813       H         56.84600000  *  154.71500000  * -40.56100000  *
   814       N         57.86600000  *  156.19400000  * -41.69000000  *
   815       H         58.08500000  *  156.42800000  * -42.64700000  *
   816       H         57.35000000  *  156.96800000  * -41.29700000  *
   817       H         58.73400000  *  156.11800000  * -41.18100000  *
   818       C         55.61100000  *  149.84600000  * -42.92800000  *
   819       O         54.63600000  *  150.09500000  * -42.22400000  *
   820       N         55.49500000  *  149.42600000  * -44.18900000  *
   821       H         56.35000000  *  149.26300000  * -44.71300000  *
   822       C         54.20500000  *  149.26000000  * -44.85200000  *
   823       H         53.62600000  *  150.17500000  * -44.72500000  *
   824       C         54.41000000  *  148.98800000  * -46.34000000  *
   825       H         54.98900000  *  149.80200000  * -46.77700000  *
   826       H         55.00200000  *  148.07700000  * -46.45200000  *
   827       C         53.12600000  *  148.85300000  * -47.10800000  *
   828       C         52.23100000  *  149.92200000  * -47.18600000  *
   829       H         52.46300000  *  150.85600000  * -46.69900000  *
   830       C         51.01500000  *  149.79500000  * -47.88400000  *
   831       H         50.32500000  *  150.62800000  * -47.91800000  *
   832       C         50.69700000  *  148.60300000  * -48.50200000  *
   833       H         49.75200000  *  148.50200000  * -49.02000000  *
   834       C         51.58700000  *  147.52100000  * -48.43200000  *
   835       H         51.33500000  *  146.58300000  * -48.91200000  *
   836       C         52.79500000  *  147.65400000  * -47.73300000  *
   837       H         53.46700000  *  146.81000000  * -47.67200000  *
   838       C         53.37400000  *  148.12200000  * -44.22700000  *
   839       O         52.16900000  *  148.28300000  * -44.00900000  *
   840       N         54.01600000  *  146.98100000  * -43.96600000  *
   841       H         55.00900000  *  146.90600000  * -44.17900000  *
   842       C         53.33800000  *  145.83600000  * -43.34100000  *
   843       H         52.47600000  *  145.52800000  * -43.93400000  *
   844       C         54.29200000  *  144.65000000  * -43.17000000  *
   845       H         55.15800000  *  145.02700000  * -42.63600000  *
   846       H         53.80700000  *  143.89200000  * -42.54700000  *
   847       C         54.73100000  *  144.00400000  * -44.46100000  *
   848       H         53.84700000  *  143.61400000  * -44.95900000  *
   849       H         55.19200000  *  144.69400000  * -45.15000000  *
   850       S         55.79700000  *  142.58100000  * -44.15400000  *
   851       C         57.05400000  *  143.29200000  * -43.18800000  *
   852       H         56.67800000  *  143.65800000  * -42.23500000  *
   853       H         57.80700000  *  142.53400000  * -42.98200000  *
   854       H         57.44300000  *  144.07900000  * -43.80900000  *
   855       C         52.84400000  *  146.26000000  * -41.95900000  *
   856       O         51.68200000  *  146.03200000  * -41.61400000  *
   857       N         53.72600000  *  146.88400000  * -41.17900000  *
   858       H         54.70100000  *  146.95700000  * -41.45300000  *
   859       C         53.34300000  *  147.35100000  * -39.84600000  *
   860       H         53.03400000  *  146.49700000  * -39.23800000  *
   861       C         54.50500000  *  148.07700000  * -39.15700000  *
   862       H         54.94100000  *  148.81500000  * -39.83000000  *
   863       H         54.12400000  *  148.60600000  * -38.28400000  *
   864       C         55.58400000  *  147.11500000  * -38.68500000  *
   865       O         55.26200000  *  145.90900000  * -38.57600000  *
   866       O         56.73300000  *  147.55200000  * -38.41700000  *
   867       C         52.15000000  *  148.27900000  * -39.96300000  *
   868       O         51.20300000  *  148.18000000  * -39.18700000  *
   869       N         52.18300000  *  149.16200000  * -40.95500000  *
   870       H         53.01600000  *  149.23700000  * -41.51800000  *
   871       C         51.08600000  *  150.10000000  * -41.17300000  *
   872       H         50.93100000  *  150.67400000  * -40.25800000  *
   873       C         51.42800000  *  151.06800000  * -42.31500000  *
   874       H         51.45500000  *  150.53900000  * -43.26600000  *
   875       H         50.66000000  *  151.83800000  * -42.36800000  *
   876       H         52.39300000  *  151.53600000  * -42.12800000  *
   877       C         49.78900000  *  149.37000000  * -41.49900000  *
   878       O         48.71100000  *  149.83600000  * -41.15600000  *
   879       N         49.90500000  *  148.22900000  * -42.16400000  *
   880       H         50.83800000  *  147.88500000  * -42.38200000  *
   881       C         48.74000000  *  147.45400000  * -42.57500000  *
   882       H         47.85700000  *  148.08600000  * -42.62800000  *
   883       H         48.90600000  *  147.02300000  * -43.58600000  *
   884       H         48.52600000  *  146.61900000  * -41.88800000  *
   885       H         72.54500000  *  137.05800000  * -55.15200000  *
   886       C         72.38600000  *  137.90500000  * -54.47400000  *
   887       O         73.28300000  *  138.71900000  * -54.28600000  *
   888       N         71.20100000  *  138.01500000  * -53.89800000  *
   889       H         70.47300000  *  137.31400000  * -54.05700000  *
   890       C         70.96800000  *  139.10000000  * -52.94900000  *
   891       H         71.50000000  *  140.00600000  * -53.22900000  *
   892       C         69.47700000  *  139.40500000  * -52.82500000  *
   893       H         69.09300000  *  139.71900000  * -53.79200000  *
   894       H         68.93000000  *  138.50600000  * -52.53300000  *
   895       C         69.17800000  *  140.45400000  * -51.81200000  *
   896       N         69.23000000  *  140.42300000  * -50.45900000  *
   897       C         68.94700000  *  141.69100000  * -50.01400000  *
   898       H         68.96900000  *  142.01200000  * -48.98400000  *
   899       N         68.72400000  *  142.47200000  * -51.05500000  *
   900       H         68.47200000  *  143.44500000  * -51.00700000  *
   901       C         68.85400000  *  141.75000000  * -52.15500000  *
   902       H         68.77100000  *  142.12600000  * -53.16500000  *
   903       C         71.52100000  *  138.65700000  * -51.58300000  *
   904       O         72.28000000  *  139.38000000  * -50.94700000  *
   905       N         71.11400000  *  137.47100000  * -51.14500000  *
   906       H         70.37100000  *  137.01600000  * -51.66500000  *
   907       C         71.55500000  *  136.88000000  * -49.87700000  *
   908       H         71.18200000  *  135.84900000  * -49.87900000  *
   909       C         73.07600000  *  136.85300000  * -49.83700000  *
   910       H         73.53100000  *  137.83300000  * -49.86900000  *
   911       H         73.36600000  *  136.47900000  * -48.85100000  *
   912       C         73.64700000  *  135.85900000  * -50.81700000  *
   913       H         73.29800000  *  134.87100000  * -50.67200000  *
   914       H         73.21600000  *  136.10500000  * -51.78700000  *
   915       C         75.11700000  *  136.08400000  * -50.99900000  *
   916       H         75.61200000  *  135.95400000  * -50.03300000  *
   917       H         75.49500000  *  135.33200000  * -51.69500000  *
   918       N         75.35800000  *  137.42700000  * -51.50600000  *
   919       H         74.62100000  *  138.12700000  * -51.38200000  *
   920       C         76.54800000  *  137.85900000  * -51.89000000  *
   921       N         77.59300000  *  137.04400000  * -51.81500000  *
   922       H         77.44700000  *  136.21200000  * -51.26800000  *
   923       H         78.49900000  *  137.44300000  * -51.92100000  *
   924       N         76.69000000  *  139.09300000  * -52.35600000  *
   925       H         75.86000000  *  139.69200000  * -52.33800000  *
   926       H         77.56200000  *  139.47800000  * -52.67100000  *
   927       C         71.03700000  *  137.42400000  * -48.54200000  *
   928       O         71.18700000  *  136.76800000  * -47.50900000  *
   929       N         70.43700000  *  138.60400000  * -48.51600000  *
   930       H         70.32800000  *  139.16900000  * -49.34700000  *
   931       C         69.93700000  *  139.07600000  * -47.23100000  *
   932       H         69.76500000  *  138.24900000  * -46.54100000  *
   933       C         70.93500000  *  140.04200000  * -46.56200000  *
   934       H         71.90900000  *  139.56600000  * -46.50900000  *
   935       H         71.04400000  *  140.94300000  * -47.17900000  *
   936       C         70.51300000  *  140.42800000  * -45.14700000  *
   937       O         70.17200000  *  139.51500000  * -44.35500000  *
   938       O         70.51000000  *  141.64400000  * -44.82500000  *
   939       C         68.58700000  *  139.73400000  * -47.37800000  *
   940       O         68.35000000  *  140.81000000  * -46.83500000  *
   941       N         67.68700000  *  139.08300000  * -48.11000000  *
   942       H         67.94300000  *  138.20800000  * -48.54500000  *
   943       C         66.35900000  *  139.64900000  * -48.29900000  *
   944       H         66.47700000  *  140.66700000  * -48.65900000  *
   945       C         65.54600000  *  138.81300000  * -49.28800000  *
   946       H         65.58300000  *  137.78400000  * -48.94500000  *
   947       H         64.50600000  *  139.14000000  * -49.25500000  *
   948       C         66.02700000  *  138.85500000  * -50.73600000  *
   949       H         67.06400000  *  138.52800000  * -50.78200000  *
   950       C         65.17300000  *  137.91700000  * -51.58300000  *
   951       H         64.15900000  *  138.30500000  * -51.68800000  *
   952       H         65.63400000  *  137.80700000  * -52.55000000  *
   953       H         65.13400000  *  136.93500000  * -51.11000000  *
   954       C         65.92100000  *  140.27700000  * -51.26400000  *
   955       H         66.42000000  *  140.99600000  * -50.63300000  *
   956       H         66.44200000  *  140.27500000  * -52.20900000  *
   957       H         64.88200000  *  140.56100000  * -51.39700000  *
   958       C         65.59400000  *  139.73400000  * -46.98200000  *
   959       O         65.58600000  *  138.79200000  * -46.16600000  *
   960       N         64.95600000  *  140.85600000  * -46.74500000  *
   961       H         64.96800000  *  141.58800000  * -47.44200000  *
   962       C         64.16500000  *  141.06200000  * -45.54700000  *
   963       H         63.55200000  *  140.17200000  * -45.41200000  *
   964       C         65.04000000  *  141.22100000  * -44.28500000  *
   965       H         64.40100000  *  141.28800000  * -43.40400000  *
   966       H         65.63200000  *  140.31400000  * -44.16600000  *
   967       C         65.98200000  *  142.43100000  * -44.28600000  *
   968       H         66.40100000  *  142.57500000  * -45.28000000  *
   969       H         65.43200000  *  143.32600000  * -43.99500000  *
   970       C         67.12800000  *  142.16300000  * -43.30400000  *
   971       H         66.72100000  *  141.89500000  * -42.32700000  *
   972       H         67.70400000  *  141.31600000  * -43.68700000  *
   973       C         68.04400000  *  143.37900000  * -43.15100000  *
   974       H         68.15400000  *  143.86900000  * -44.12400000  *
   975       H         67.56600000  *  144.09200000  * -42.46900000  *
   976       N         69.37400000  *  142.96000000  * -42.63700000  *
   977       H         69.86600000  *  142.39800000  * -43.34600000  *
   978       H         69.94200000  *  143.76300000  * -42.39700000  *
   979       H         69.27400000  *  142.39800000  * -41.80200000  *
   980       C         63.26700000  *  142.23200000  * -45.83500000  *
   981       O         63.63000000  *  143.07900000  * -46.65100000  *
   982       N         62.11200000  *  142.30300000  * -45.18600000  *
   983       C         61.62600000  *  141.34600000  * -44.17100000  *
   984       H         62.10000000  *  141.53200000  * -43.20900000  *
   985       H         61.74500000  *  140.31100000  * -44.47600000  *
   986       C         60.16400000  *  141.66900000  * -44.09500000  *
   987       H         59.73700000  *  141.34900000  * -43.14300000  *
   988       H         59.63700000  *  141.20600000  * -44.93200000  *
   989       C         60.16000000  *  143.18900000  * -44.24800000  *
   990       H         60.51600000  *  143.64900000  * -43.32100000  *
   991       H         59.20200000  *  143.56500000  * -44.57400000  *
   992       C         61.14500000  *  143.38000000  * -45.40300000  *
   993       H         60.63400000  *  143.20500000  * -46.34500000  *
   994       C         61.77100000  *  144.77100000  * -45.44800000  *
   995       O         61.39200000  *  145.58400000  * -46.27300000  *
   996       N         62.72200000  *  145.09300000  * -44.55400000  *
   997       H         62.96600000  *  144.40900000  * -43.85400000  *
   998       C         63.42900000  *  146.39600000  * -44.53500000  *
   999       H         62.69100000  *  147.19600000  * -44.44300000  *
  1000       C         64.38600000  *  146.47700000  * -43.33200000  *
  1001       H         65.07100000  *  145.62900000  * -43.36200000  *
  1002       H         64.97900000  *  147.38900000  * -43.42500000  *
  1003       C         63.68100000  *  146.52300000  * -41.97000000  *
  1004       H         62.97900000  *  147.35800000  * -41.96600000  *
  1005       H         63.12800000  *  145.59900000  * -41.81400000  *
  1006       C         64.67600000  *  146.68900000  * -40.81900000  *
  1007       O         65.70300000  *  146.02600000  * -40.74700000  *
  1008       N         64.41600000  *  147.56400000  * -39.87300000  *
  1009       H         65.08200000  *  147.66400000  * -39.12000000  *
  1010       H         63.59900000  *  148.15200000  * -39.91900000  *
  1011       C         64.25500000  *  146.68800000  * -45.80500000  *
  1012       O         64.43600000  *  147.84500000  * -46.17600000  *
  1013       N         64.75100000  *  145.64300000  * -46.47100000  *
  1014       H         64.47200000  *  144.72200000  * -46.16400000  *
  1015       C         65.53200000  *  145.70300000  * -47.70900000  *
  1016       H         66.09200000  *  146.63900000  * -47.74500000  *
  1017       C         66.54800000  *  144.53000000  * -47.72900000  *
  1018       H         66.05000000  *  143.60600000  * -47.44900000  *
  1019       H         66.91800000  *  144.39400000  * -48.74200000  *
  1020       C         67.77900000  *  144.73000000  * -46.85400000  *
  1021       O         68.08100000  *  145.81700000  * -46.38700000  *
  1022       N         68.54200000  *  143.68900000  * -46.59600000  *
  1023       H         69.41800000  *  143.84700000  * -46.12500000  *
  1024       H         68.29600000  *  142.74000000  * -46.86100000  *
  1025       C         64.63300000  *  145.70500000  * -48.96400000  *
  1026       O         65.15800000  *  145.60800000  * -50.07100000  *
  1027       N         63.30000000  *  145.80300000  * -48.83400000  *
  1028       H         62.89500000  *  145.87300000  * -47.90900000  *
  1029       C         62.40600000  *  145.84500000  * -49.97900000  *
  1030       H         62.94700000  *  145.74800000  * -50.91900000  *
  1031       C         61.36900000  *  144.72100000  * -49.88900000  *
  1032       H         60.76900000  *  144.86100000  * -48.99200000  *
  1033       H         60.74400000  *  144.79800000  * -50.77200000  *
  1034       C         62.03600000  *  143.32400000  * -49.85900000  *
  1035       H         62.67100000  *  143.24000000  * -48.98800000  *
  1036       C         61.00200000  *  142.26000000  * -49.77100000  *
  1037       H         60.24600000  *  142.42800000  * -50.53400000  *
  1038       H         61.44700000  *  141.27100000  * -49.89000000  *
  1039       H         60.52000000  *  142.31900000  * -48.79800000  *
  1040       C         62.89500000  *  143.12600000  * -51.08400000  *
  1041       H         63.82900000  *  143.66800000  * -50.95600000  *
  1042       H         63.12900000  *  142.06900000  * -51.20900000  *
  1043       H         62.39300000  *  143.49200000  * -51.96600000  *
  1044       C         61.76300000  *  147.21800000  * -49.95200000  *
  1045       O         61.15000000  *  147.60200000  * -48.96600000  *
  1046       N         61.89900000  *  147.98300000  * -51.02800000  *
  1047       H         62.39300000  *  147.60900000  * -51.83200000  *
  1048       C         61.44200000  *  149.37100000  * -51.07400000  *
  1049       H         61.07400000  *  149.68600000  * -50.10100000  *
  1050       C         62.59300000  *  150.28400000  * -51.46700000  *
  1051       H         62.94900000  *  149.99100000  * -52.45500000  *
  1052       H         62.20300000  *  151.29900000  * -51.51800000  *
  1053       C         63.77200000  *  150.26000000  * -50.49500000  *
  1054       H         64.24300000  *  149.27800000  * -50.50600000  *
  1055       C         64.76200000  *  151.29400000  * -50.99700000  *
  1056       H         64.41900000  *  152.28600000  * -50.71400000  *
  1057       H         65.73500000  *  151.09000000  * -50.56600000  *
  1058       H         64.85100000  *  151.26100000  * -52.07800000  *
  1059       C         63.36400000  *  150.60300000  * -49.06200000  *
  1060       H         62.83500000  *  149.75900000  * -48.62800000  *
  1061       H         64.23900000  *  150.80500000  * -48.45100000  *
  1062       H         62.71900000  *  151.48100000  * -49.05300000  *
  1063       C         60.30800000  *  149.54200000  * -52.06000000  *
  1064       O         60.39000000  *  149.06800000  * -53.18000000  *
  1065       N         59.26800000  *  150.25600000  * -51.67700000  *
  1066       H         59.36500000  *  150.76300000  * -50.80000000  *
  1067       C         58.08300000  *  150.44700000  * -52.50800000  *
  1068       H         58.17300000  *  149.92400000  * -53.45700000  *
  1069       C         56.81900000  *  149.90600000  * -51.78600000  *
  1070       H         55.94300000  *  150.08700000  * -52.41500000  *
  1071       C         56.95000000  *  148.40400000  * -51.54300000  *
  1072       H         57.75300000  *  148.18300000  * -50.83300000  *
  1073       H         56.01300000  *  148.00400000  * -51.15200000  *
  1074       H         57.15800000  *  147.91500000  * -52.48900000  *
  1075       C         56.64700000  *  150.60600000  * -50.43300000  *
  1076       H         57.48200000  *  150.38000000  * -49.77500000  *
  1077       H         56.60500000  *  151.68300000  * -50.57600000  *
  1078       C         55.37000000  *  150.22200000  * -49.68600000  *
  1079       H         55.48900000  *  149.24800000  * -49.22200000  *
  1080       H         55.17000000  *  150.96500000  * -48.91000000  *
  1081       H         54.52900000  *  150.16800000  * -50.38500000  *
  1082       C         57.87200000  *  151.93000000  * -52.81700000  *
  1083       O         58.38200000  *  152.79400000  * -52.10000000  *
  1084       N         57.14900000  *  152.22000000  * -53.89700000  *
  1085       H         56.70500000  *  151.48200000  * -54.43300000  *
  1086       C         56.84100000  *  153.60200000  * -54.22700000  *
  1087       H         57.16800000  *  154.27800000  * -53.43100000  *
  1088       C         57.50400000  *  154.05300000  * -55.54100000  *
  1089       H         57.21800000  *  155.07000000  * -55.80500000  *
  1090       H         58.58200000  *  154.04400000  * -55.38800000  *
  1091       C         57.19300000  *  153.14600000  * -56.70100000  *
  1092       O         56.13500000  *  152.53500000  * -56.76400000  *
  1093       N         58.11500000  *  153.07200000  * -57.64100000  *
  1094       H         57.83300000  *  152.61700000  * -58.48600000  *
  1095       H         58.88600000  *  153.71500000  * -57.62100000  *
  1096       C         55.33100000  *  153.75800000  * -54.32100000  *
  1097       O         54.57600000  *  152.79900000  * -54.11400000  *
  1098       N         54.88500000  *  154.97100000  * -54.62100000  *
  1099       H         55.52100000  *  155.73600000  * -54.79200000  *
  1100       C         53.46400000  *  155.24700000  * -54.72300000  *
  1101       H         52.92700000  *  154.82600000  * -53.87200000  *
  1102       C         53.20900000  *  156.78000000  * -54.75500000  *
  1103       H         52.16900000  *  156.98000000  * -55.02600000  *
  1104       C         53.47800000  *  157.39700000  * -53.41000000  *
  1105       H         54.52100000  *  157.25500000  * -53.13000000  *
[...]
 1005  H   0.85292
 1006  C   1.06724   0.81481   0.75129   0.79791
 1007  O   1.88379   1.35615   1.54405   1.79265
 1008  N   1.52731   1.34173   1.42811   1.33552
 1009  H   0.66579
 1010  H   0.69308
 1011  C   1.08286   0.76590   0.79277   0.82069
 1012  O   1.88897   1.62947   1.28402   1.70756
 1013  N   1.55217   1.52074   1.20091   1.30760
 1014  H   0.67319
 1015  C   1.07194   0.94231   1.09479   0.81988
 1016  H   0.80263
 1017  C   1.07005   1.05445   1.08965   1.16171
 1018  H   0.83571
 1019  H   0.80528
 1020  C   1.06112   0.81189   0.78027   0.77089
 1021  O   1.88160   1.75408   1.36972   1.58579
 1022  N   1.53301   1.31257   1.19503   1.60327
 1023  H   0.66526
 1024  H   0.65931
 1025  C   1.08999   0.78469   0.71285   0.85255
 1026  O   1.87706   1.77059   1.62369   1.39071
 1027  N   1.54113   1.12646   1.65898   1.18468
 1028  H   0.65055
 1029  C   1.06953   0.96859   0.98358   0.97297
 1030  H   0.81516
 1031  C   1.06726   1.06551   0.99395   1.17578
 1032  H   0.83306
 1033  H   0.84847
 1034  C   1.04096   1.01073   0.95050   1.05987
 1035  H   0.85439
 1036  C   1.04882   1.12526   1.11264   1.17371
 1037  H   0.84823
 1038  H   0.85730
 1039  H   0.86094
 1040  C   1.05133   1.14400   1.16470   1.10172
 1041  H   0.84356
 1042  H   0.86454
 1043  H   0.85138
 1044  C   1.07581   0.75435   0.84246   0.75956
 1045  O   1.87359   1.52701   1.79165   1.43680
 1046  N   1.54567   1.55768   1.17538   1.24839
 1047  H   0.65006
 1048  C   1.06403   0.98417   0.82546   1.10619
 1049  H   0.80675
 1050  C   1.06368   1.03041   1.11013   1.11364
 1051  H   0.85215
 1052  H   0.83926
 1053  C   1.04853   0.97134   1.06256   0.97415
 1054  H   0.86964
 1055  C   1.05353   1.12532   1.13653   1.15548
 1056  H   0.84340
 1057  H   0.86182
 1058  H   0.86182
 1059  C   1.05466   1.17595   1.18010   1.04166
 1060  H   0.83636
 1061  H   0.85153
 1062  H   0.84143
 1063  C   1.07387   0.80122   0.74302   0.81360
 1064  O   1.86682   1.83651   1.63200   1.35122
 1065  N   1.54194   1.19283   1.45954   1.30029
 1066  H   0.63780
 1067  C   1.07626   0.89337   1.00593   1.04042
 1068  H   0.81482
 1069  C   1.06493   1.01460   0.99098   1.02275
 1070  H   0.84039
 1071  C   1.05435   1.17992   1.03726   1.17313
 1072  H   0.84494
 1073  H   0.84638
 1074  H   0.85549
 1075  C   1.05406   1.07364   1.11905   1.03027
 1076  H   0.84692
 1077  H   0.86112
 1078  C   1.05250   1.08501   1.16103   1.13212
 1079  H   0.84663
 1080  H   0.87417
 1081  H   0.84746
 1082  C   1.08551   0.74077   0.88487   0.74173
 1083  O   1.88626   1.57354   1.57852   1.55802
 1084  N   1.54279   1.50444   1.14365   1.33842
 1085  H   0.64024
 1086  C   1.06156   0.99096   0.88443   1.02112
 1087  H   0.79828
 1088  C   1.07049   1.17527   1.10766   1.03891
 1089  H   0.83484
 1090  H   0.81742
 1091  C   1.06843   0.77587   0.79038   0.82107
 1092  O   1.88752   1.30923   1.50823   1.80405
 1093  N   1.53719   1.31340   1.52301   1.27963
 1094  H   0.69515
 1095  H   0.69566
 1096  C   1.08106   0.88519   0.77477   0.74714
 1097  O   1.89427   1.62613   1.43501   1.52907
 1098  N   1.54161   1.14407   1.19721   1.69526
 1099  H   0.67818
 1100  C   1.08500   0.83427   1.03682   1.09510
 1101  H   0.80825
 1102  C   1.08474   0.98537   0.88594   0.88662
 1103  H   0.85597
 1104  C   1.05323   1.18501   1.17309   1.05688
 1105  H   0.84140
 1106  H   0.83205
 1107  H   0.83105
 1108  O   1.85082   1.58504   1.82269   1.32560
 1109  H   0.67306
 1110  C   1.07473   0.81007   0.76981   0.81922
 1111  O   1.88595   1.23190   1.61663   1.81398
 1112  N   1.53441   1.18305   1.58136   1.22087
 1113  H   0.68993
 1114  C   1.05384   1.13252   1.14039   0.88809
 1115  H   0.84127
 1116  H   0.87229
 1117  H   0.83489
 1118  H   0.86779
 1119  C   1.10017   0.76488   0.75362   0.92063
 1120  O   1.88719   1.66984   1.57172   1.45685
 1121  N   1.54656   1.44423   1.35130   1.20828
 1122  H   0.67429
 1123  C   1.08036   0.92901   1.08612   0.92404
 1124  H   0.80912
 1125  C   1.07311   1.07886   0.95438   0.98267
 1126  H   0.84450
 1127  C   1.05753   1.18805   1.08039   1.12366
 1128  H   0.83783
 1129  H   0.85397
 1130  H   0.85843
 1131  C   1.05398   1.07451   1.13517   1.01850
 1132  H   0.85596
 1133  H   0.85239
 1134  C   1.04892   1.14427   1.14766   1.09038
 1135  H   0.85581
 1136  H   0.85964
 1137  H   0.84931
 1138  C   1.07513   0.84262   0.74882   0.79197
 1139  O   1.88224   1.88212   1.48250   1.36323
 1140  N   1.54689   1.09765   1.54224   1.34320
 1141  H   0.63094
 1142  C   1.06850   0.85038   1.04221   1.03919
 1143  H   0.81358
 1144  C   1.05967   1.08898   1.05690   1.08932
 1145  H   0.83368
 1146  H   0.84595
 1147  C   1.05095   1.08858   1.03281   1.08370
 1148  H   0.85849
 1149  H   0.83998
 1150  C   1.06133   1.07619   1.05823   1.09705
 1151  H   0.82374
 1152  H   0.82570
 1153  C   1.08166   1.03092   0.99377   1.07616
 1154  H   0.83527
 1155  H   0.82789
 1156  N   1.46383   1.23214   1.24282   1.25560
 1157  H   0.66804
 1158  H   0.69283
 1159  H   0.73015
 1160  C   1.07962   0.77835   0.75107   0.82873
 1161  O   1.88190   1.76760   1.68891   1.28812
 1162  N   1.54483   1.33050   1.42922   1.22898
 1163  H   0.64218
 1164  C   1.06986   0.91874   0.95618   1.02978
 1165  H   0.83140
 1166  C   1.06260   1.09798   1.02035   1.13372
 1167  H   0.83438
 1168  H   0.84798
 1169  C   1.05389   1.07591   0.96025   0.95831
 1170  H   0.85430
 1171  C   1.06150   1.15495   1.13916   1.09669
 1172  H   0.86244
 1173  H   0.85282
 1174  H   0.84792
 1175  C   1.05712   1.17429   1.13647   1.09484
 1176  H   0.85056
 1177  H   0.85403
 1178  H   0.86041
 1179  C   1.08604   0.79149   0.80059   0.75832
 1180  O   1.88133   1.63184   1.59746   1.53620
 1181  N   1.54385   1.36942   1.43691   1.16122
 1182  H   0.64245
 1183  C   1.06722   0.91555   0.92986   1.04606
 1184  H   0.83269
 1185  C   1.05925   1.16078   1.07888   1.16021
 1186  H   0.81486
 1187  H   0.85390
 1188  H   0.82171
 1189  C   1.08982   0.78593   0.78790   0.74518
 1190  O   1.87385   1.84046   1.35599   1.58036
 1191  N   1.54755   1.17588   1.32491   1.50051
 1192  H   0.68741
 1193  C   1.07587   0.87171   1.07932   0.94008
 1194  H   0.82223
 1195  C   1.08021   1.14598   1.18676   0.99500
 1196  H   0.80812
 1197  H   0.82709
 1198  C   1.07118   0.73449   0.71287   0.71050
 1199  O   1.88698   1.80441   1.49276   1.52956
 1200  O   1.86984   1.65935   1.53397   1.82163
 1201  C   1.09087   0.81999   0.79532   0.74713
 1202  O   1.88752   1.27975   1.80862   1.56100
 1203  N   1.56716   1.29487   1.16792   1.54572
 1204  H   0.67949
 1205  C   1.07941   1.01581   0.91836   0.95407
 1206  H   0.84105
 1207  C   1.05584   1.08037   1.20367   0.95959
 1208  H   0.81443
 1209  H   0.81802
 1210  C   1.07368   0.97094   0.97771   0.97068
 1211  C   1.08854   1.03618   1.04189   1.01376
 1212  H   0.84253
 1213  C   1.08461   0.99230   1.05630   1.01756
 1214  H   0.85941
 1215  C   1.08692   1.05791   0.99224   1.02838
 1216  H   0.84949
 1217  C   1.08968   1.03688   1.03367   0.98356
 1218  H   0.83039
 1219  C   1.08706   0.98529   1.05954   1.01977
 1220  H   0.84220
 1221  C   1.09148   0.80368   0.77384   0.76167
 1222  O   1.88505   1.44601   1.56345   1.71367
 1223  N   1.54002   1.41503   1.43736   1.13679
 1224  H   0.68263
 1225  C   1.06925   0.98130   1.07340   0.98624
 1226  H   0.80718
 1227  H   0.80187
 1228  C   1.08087   0.82931   0.77335   0.69599
 1229  O   1.87558   1.84435   1.33190   1.62281
 1230  N   1.55809   1.29788   1.23622   1.44615
 1231  H   0.66925
 1232  C   1.07766   0.89927   1.03836   0.96473
 1233  H   0.84589
 1234  C   1.06839   1.11294   0.94539   1.17851
 1235  H   0.83326
 1236  H   0.83345
 1237  C   1.05194   1.03030   0.96250   1.01070
 1238  H   0.86177
 1239  C   1.05583   1.16929   1.06492   1.16309
 1240  H   0.85674
 1241  H   0.84200
 1242  H   0.85649
 1243  C   1.05581   1.17315   1.18950   1.04512
 1244  H   0.84446
 1245  H   0.83501
 1246  H   0.85989
 1247  C   1.09743   0.86703   0.77015   0.74325
 1248  O   1.88397   1.31025   1.77547   1.56594
 1249  N   1.58470   1.28164   1.24006   1.52976
 1250  H   0.66439
 1251  C   1.06986   0.96077   0.99061   0.96058
 1252  H   0.82547
 1253  C   1.05737   1.14299   1.09945   1.16306
 1254  H   0.86436
 1255  H   0.81988
 1256  H   0.81212
 1257  C   1.07840   0.84914   0.77025   0.78404
 1258  O   1.89132   1.45594   1.52687   1.62123
 1259  N   1.54613   1.31384   1.54413   1.15296
 1260  H   0.70180
 1261  C   1.06032   0.93032   1.14802   1.09027
 1262  H   0.81680
 1263  H   0.85520
 1264  H   0.84413
 1265  H   0.88474
 1266  C   1.09735   0.75860   0.82381   0.86995
 1267  O   1.89049   1.46958   1.31197   1.86336
 1268  N   1.54403   1.50213   1.35464   1.15135
 1269  H   0.69064
 1270  C   1.07228   1.10712   0.96350   0.82305
 1271  H   0.80369
 1272  C   1.05755   1.09454   1.03355   1.14024
 1273  H   0.84566
 1274  H   0.83337
 1275  C   1.06473   0.97681   0.94830   0.96805
 1276  C   1.08160   1.01289   0.99093   1.05627
 1277  H   0.84718
 1278  C   1.08052   1.03431   1.02434   0.99466
 1279  H   0.85470
 1280  C   1.07842   1.00762   1.05288   1.02436
 1281  H   0.86052
 1282  C   1.07793   1.02530   1.00568   1.04990
 1283  H   0.86365
 1284  C   1.08010   1.06152   1.02656   1.00065
 1285  H   0.84908
 1286  C   1.08307   0.77325   0.80321   0.81756
 1287  O   1.89078   1.50333   1.62912   1.48144
 1288  N   1.53924   1.18090   1.36146   1.44778
 1289  H   0.68150
 1290  C   1.05525   1.13023   0.97666   0.99562
 1291  H   0.83711
 1292  H   0.79695
 1293  C   1.07850   0.79054   0.75937   0.80332
 1294  O   1.88019   1.53787   1.37711   1.84084
 1295  N   1.53677   1.41143   1.37656   1.18579
 1296  H   0.67122
 1297  C   1.07337   1.00508   1.18276   0.89263
 1298  H   0.82098
 1299  H   0.81499
 1300  C   1.07925   0.79703   0.76118   0.81352
 1301  O   1.89027   1.46248   1.49041   1.68769
 1302  N   1.56504   1.46247   1.16781   1.27104
 1303  C   1.06804   1.06436   0.87495   1.05045
 1304  H   0.84595
 1305  H   0.85352
 1306  C   1.05740   1.03756   1.13891   1.06195
 1307  H   0.83774
 1308  H   0.80274
 1309  C   1.05939   1.09214   0.99422   1.15214
 1310  H   0.85764
 1311  H   0.83296
 1312  C   1.07063   1.04472   0.98635   0.88095
 1313  H   0.83336
 1314  C   1.09100   0.79133   0.79473   0.82255
 1315  O   1.89227   1.35912   1.36130   1.85860
 1316  N   1.54604   1.41349   1.50911   1.12666
 1317  H   0.68440
 1318  C   1.07865   1.04457   1.12160   0.88129
 1319  H   0.80271
 1320  H   0.82092
 1321  C   1.08602   0.82895   0.73306   0.78212
 1322  O   1.88605   1.69488   1.71536   1.32083
 1323  N   1.55280   1.23523   1.41519   1.34493
 1324  H   0.68948
 1325  C   1.07643   0.85789   1.06004   0.98290
 1326  H   0.82258
 1327  C   1.05904   1.17700   1.07697   0.96476
 1328  H   0.84757
 1329  H   0.82226
 1330  C   1.05758   1.11783   1.05749   1.05038
 1331  H   0.83359
 1332  H   0.87442
 1333  C   1.06928   1.10892   1.11899   0.74632
 1334  H   0.83605
 1335  H   0.80772
 1336  N   1.53392   1.59317   1.27318   1.10589
 1337  H   0.67032
 1338  C   0.97633   0.84036   0.80652   0.79174
 1339  N   1.49889   1.55641   1.25207   1.24777
 1340  H   0.64604
 1341  H   0.65706
 1342  N   1.50165   1.59026   1.35398   1.14264
 1343  H   0.66381
 1344  H   0.65913
 1345  C   1.08038   0.77735   0.78183   0.84600
 1346  O   1.89143   1.44928   1.63088   1.54527
 1347  N   1.54340   1.55341   1.19518   1.24304
 1348  H   0.68978
 1349  C   1.09123   1.00774   1.01029   0.91003
 1350  H   0.79988
 1351  C   1.08383   0.92111   0.92421   0.88358
 1352  H   0.85438
 1353  C   1.05833   1.10867   1.12670   1.19916
 1354  H   0.82624
 1355  H   0.82721
 1356  H   0.84131
 1357  O   1.84241   1.59455   1.64180   1.56274
 1358  H   0.60877
 1359  C   1.07970   0.81341   0.79668   0.76839
 1360  O   1.88817   1.52941   1.79260   1.36464
 1361  N   1.55441   1.33132   1.29554   1.37757
 1362  H   0.64868
 1363  C   1.07354   0.97554   0.92447   1.00743
 1364  H   0.83182
 1365  C   1.05679   1.09268   1.06730   1.08489
 1366  H   0.85312
 1367  H   0.83598
 1368  C   1.05823   0.96999   0.97360   1.07980
 1369  C   1.08207   0.97582   1.07630   1.00390
 1370  H   0.85102
 1371  C   1.08813   1.08616   0.99722   0.98859
 1372  H   0.79335
 1373  C   1.06867   0.83162   0.89498   0.87247
 1374  O   1.84082   1.46517   1.54581   1.69947
 1375  H   0.60392
 1376  C   1.07180   0.99532   1.09237   1.08066
 1377  H   0.85417
 1378  C   1.07699   1.05329   1.00363   1.02438
 1379  H   0.87608
 1380  C   1.08168   0.79339   0.75863   0.82346
 1381  O   1.88961   1.35943   1.51321   1.81042
 1382  N   1.55294   1.20432   1.61314   1.15029
 1383  H   0.65941
 1384  C   1.08617   1.09467   1.05601   0.83623
 1385  H   0.85001
 1386  C   1.08038   0.85328   0.86841   1.00781
 1387  H   0.87614
 1388  C   1.05616   1.09566   1.13760   1.18911
 1389  H   0.83293
 1390  H   0.85490
 1391  H   0.85282
 1392  O   1.84990   1.30845   1.76155   1.64761
 1393  H   0.59930
 1394  C   1.08829   0.86125   0.77073   0.80806
 1395  O   1.89640   1.23695   1.65228   1.60021
 1396  N   1.54730   1.20477   1.30482   1.51996
 1397  H   0.69412
 1398  C   1.06722   1.01877   1.01424   1.05316
 1399  H   0.88177
 1400  H   0.84482
 1401  C   1.06973   0.85191   0.75657   0.78812
 1402  O   1.89325   1.66750   1.37870   1.50995
 1403  N   1.55722   1.14801   1.53585   1.33805
 1404  H   0.68930
 1405  C   1.07201   0.82321   0.97373   1.14071
 1406  H   0.83254
 1407  C   1.05679   1.16619   1.00983   1.02734
 1408  H   0.84751
 1409  H   0.83103
 1410  C   1.06007   1.20490   0.98191   1.16256
 1411  H   0.83351
 1412  H   0.83457
 1413  C   1.06248   0.73895   0.72256   0.73340
 1414  O   1.89232   1.43314   1.80000   1.60906
 1415  O   1.88385   1.53356   1.58123   1.81701
 1416  C   1.09495   0.76515   0.86754   0.74686
 1417  O   1.88699   1.65384   1.65721   1.40296
 1418  N   1.54804   1.31573   1.19223   1.48983
 1419  H   0.67109
 1420  C   1.07024   1.04657   0.86943   1.02888
 1421  H   0.87154
 1422  C   1.05523   1.03115   1.04101   0.95615
 1423  H   0.82511
 1424  C   1.05491   1.16618   1.03672   1.20490
 1425  H   0.86099
 1426  H   0.84194
 1427  H   0.82131
 1428  C   1.05351   1.16798   1.15517   1.07874
 1429  H   0.85315
 1430  H   0.83980
 1431  H   0.87270
 1432  C   1.07388   0.79225   0.74862   0.84341
 1433  O   1.88968   1.32262   1.58731   1.74414
 1434  N   1.53879   1.27326   1.49310   1.21297
 1435  H   0.68147
 1436  C   1.07440   1.00923   1.04578   0.86629
 1437  H   0.84298
 1438  C   1.06138   1.03026   1.01683   0.98000
 1439  H   0.83850
 1440  C   1.05313   1.18242   1.10072   1.10937
 1441  H   0.83366
 1442  H   0.84890
 1443  H   0.86520
 1444  C   1.05650   1.19184   1.16263   1.04346
 1445  H   0.86076
 1446  H   0.83698
 1447  H   0.83042
 1448  C   1.08298   0.80950   0.79872   0.76211
 1449  O   1.88750   1.79469   1.44240   1.43242
 1450  N   1.53616   1.24372   1.43844   1.31515
 1451  H   0.68567
 1452  C   1.07802   0.90296   0.96841   1.14069
 1453  H   0.81597
 1454  C   1.07866   0.93263   0.84246   0.98868
 1455  H   0.87430
 1456  C   1.05580   1.09954   1.13376   1.18191
 1457  H   0.83990
 1458  H   0.82860
 1459  H   0.84530
 1460  O   1.85207   1.45309   1.47073   1.77159
 1461  H   0.66544
 1462  C   1.07518   0.76599   0.82447   0.81386
 1463  O   1.88675   1.45246   1.86782   1.32196
 1464  N   1.53702   1.58435   1.12343   1.28789
 1465  H   0.68724
 1466  C   1.05227   1.16026   0.87591   1.13289
 1467  H   0.82174
 1468  H   0.85333
 1469  H   0.86618
 1470  H   0.86960
 1471  C   1.10168   0.76421   0.81180   0.89544
 1472  O   1.88720   1.42740   1.33455   1.87140
 1473  N   1.55041   1.52617   1.36325   1.14179
 1474  H   0.68736
 1475  C   1.07792   1.09058   1.02955   0.79358
 1476  H   0.81263
 1477  C   1.05937   1.13162   1.00683   1.09924
 1478  H   0.81552
 1479  H   0.82639
 1480  C   1.06837   0.97638   0.98715   0.99768
 1481  C   1.08110   0.99040   1.01954   1.00391
 1482  H   0.84531
 1483  C   1.07576   1.10248   1.04729   1.06462
 1484  H   0.82507
 1485  C   1.07245   0.88856   0.88829   0.88312
 1486  O   1.84176   1.33098   1.60085   1.72836
 1487  H   0.65387
 1488  C   1.07523   0.98879   1.10191   1.09848
 1489  H   0.83493
 1490  C   1.08712   1.07406   0.98161   0.97233
 1491  H   0.84105
 1492  C   1.08197   0.80329   0.78093   0.81054
 1493  O   1.89299   1.77872   1.64258   1.23657
 1494  N   1.53511   1.26487   1.54068   1.17723
 1495  H   0.69023
 1496  C   1.05806   0.92143   1.08519   1.15573
 1497  H   0.83211
 1498  H   0.85592
 1499  H   0.85015
 1500  H   0.86591
 1501  C   1.10298   0.82983   0.87807   0.75944
 1502  O   1.89044   1.34345   1.83480   1.42337
 1503  N   1.55423   1.37695   1.20571   1.47150
 1504  H   0.69156
 1505  C   1.07914   0.97670   0.84379   1.12471
 1506  H   0.81518
 1507  C   1.05898   0.98035   1.00857   1.06740
 1508  H   0.86926
 1509  C   1.05192   1.15816   1.05405   1.18177
 1510  H   0.83712
 1511  H   0.85320
 1512  H   0.83574
 1513  C   1.04805   1.00414   1.12227   1.09020
 1514  H   0.86283
 1515  H   0.86413
 1516  C   1.04891   1.11925   1.13508   1.13917
 1517  H   0.85400
 1518  H   0.85521
 1519  H   0.85406
 1520  C   1.07237   0.86785   0.76281   0.76291
 1521  O   1.88565   1.52990   1.48956   1.60562
 1522  N   1.54256   1.16445   1.44792   1.40494
 1523  H   0.70096
 1524  C   1.06817   0.88828   1.14593   1.09860
 1525  H   0.85013
 1526  H   0.86145
 1527  H   0.82825
 1528  H   0.86165
 1529  C   1.10305   0.85220   0.75670   0.84833
 1530  O   1.89242   1.78021   1.57452   1.31042
 1531  N   1.53869   1.27077   1.41801   1.30156
 1532  H   0.68216
 1533  C   1.05781   0.87973   1.04762   1.01944
 1534  H   0.82156
 1535  C   1.06046   1.03621   1.11719   1.10585
 1536  H   0.84168
 1537  H   0.84426
 1538  C   1.04470   0.99075   0.96534   1.05978
 1539  H   0.87935
 1540  C   1.05431   1.16054   1.06610   1.18153
 1541  H   0.84423
 1542  H   0.84612
 1543  H   0.85046
 1544  C   1.05241   1.12442   1.16809   1.10994
 1545  H   0.86167
 1546  H   0.84696
 1547  H   0.83994
 1548  C   1.07994   0.74557   0.87729   0.77793
 1549  O   1.88737   1.52443   1.42229   1.71301
 1550  N   1.54026   1.59572   1.20289   1.20219
 1551  H   0.67720
 1552  C   1.06924   1.04644   0.93850   0.93142
 1553  H   0.81957
 1554  C   1.05600   1.16650   1.05756   1.01498
 1555  H   0.83598
 1556  H   0.83274
 1557  C   1.05725   1.12855   1.10508   1.02189
 1558  H   0.83943
 1559  H   0.82543
 1560  C   1.06736   1.16577   0.93395   0.90778
 1561  H   0.82050
 1562  H   0.83891
 1563  N   1.52347   1.14360   1.42320   1.39816
 1564  H   0.66770
 1565  C   0.99025   0.79786   0.80735   0.81349
 1566  N   1.51439   1.10577   1.46131   1.48335
 1567  H   0.64441
 1568  H   0.65924
 1569  N   1.50488   1.23281   1.41704   1.42982
 1570  H   0.66057
 1571  H   0.65734
 1572  C   1.07515   0.86240   0.79046   0.77581
 1573  O   1.88899   1.59373   1.59486   1.52274
 1574  N   1.53735   1.18916   1.25267   1.49277
 1575  H   0.67816
 1576  C   1.08130   0.82425   1.13628   1.03979
 1577  H   0.82548
 1578  C   1.06015   1.16054   1.08170   1.00195
 1579  H   0.84447
 1580  H   0.84748
 1581  C   1.04861   1.07964   0.97393   0.94381
 1582  H   0.87135
 1583  C   1.05527   1.15685   1.15622   1.09379
 1584  H   0.86960
 1585  H   0.86914
 1586  H   0.85338
 1587  C   1.05659   1.16481   1.08978   1.15410
 1588  H   0.84685
 1589  H   0.87110
 1590  H   0.83795
 1591  C   1.07429   0.75915   0.76231   0.73160
 1592  O   1.88877   1.43174   1.84340   1.57833
 1593  O   1.89197   1.52775   1.54892   1.77949

 **********************
 *                    *
 * JOB ENDED NORMALLY *
 *                    *
 **********************



 TOTAL JOB TIME:          2456.42 SECONDS

 == MOPAC DONE ==
