 *******************************************************************************
 **                                                                           **
 **                              MOPAC v23.2.2                                **
 **                                                                           **
 *******************************************************************************
 **          Digital Object Identifier (DOI): 10.5281/zenodo.6511958          **
 **    Visit the DOI location for information on how to cite this program.    **
 *******************************************************************************

                              PM7 CALCULATION RESULTS

 *******************************************************************************
 *  CALCULATION DONE: (MAX THREADS = 24)             Thu Jan 22 15:24:22 2026  *
 *  PM7        - The PM7 Hamiltonian to be used
 *
 *
 *
 *                 CHARGE ON SYSTEM = +2
 *
 *
 *
 *  EPS=1      - USE ANDREAS KLAMT'S COSMO IMPLICIT SOLVATION MODEL
 *  XYZ        - CARTESIAN COORDINATE SYSTEM TO BE USED
 *  1SCF       - DO 1 SCF AND THEN STOP 
 *  T=         - A TIME OF 172800.0 SECONDS REQUESTED
 *  DUMP=N     - RESTART FILE WRITTEN EVERY 7200.0 SECONDS REQUESTED
 *******************************************************************************
PM7 1SCF XYZ CHARGE=2 EPS=1


   ATOM   CHEMICAL          X               Y               Z
  NUMBER   SYMBOL      (ANGSTROMS)     (ANGSTROMS)     (ANGSTROMS)

     1       H         71.69100000  *  165.23700000  * -45.36000000  *
     2       C         70.72700000  *  165.64400000  * -45.02500000  *
     3       O         70.67100000  *  166.69300000  * -44.40000000  *
     4       N         69.64800000  *  164.94600000  * -45.35400000  *
     5       H         69.74300000  *  164.08600000  * -45.86500000  *
     6       C         68.31800000  *  165.37700000  * -44.95100000  *
     7       H         68.30400000  *  166.44500000  * -44.75000000  *
     8       C         67.27900000  *  165.08100000  * -46.05800000  *
     9       H         67.27200000  *  164.02200000  * -46.29800000  *
    10       C         65.89200000  *  165.46600000  * -45.59200000  *
    11       H         65.46400000  *  166.22900000  * -46.24500000  *
    12       H         65.23700000  *  164.60600000  * -45.62700000  *
    13       H         65.87600000  *  165.89500000  * -44.58400000  *
    14       C         67.63700000  *  165.85600000  * -47.31700000  *
    15       H         68.59400000  *  165.52900000  * -47.70800000  *
    16       H         66.87900000  *  165.66900000  * -48.07700000  *
    17       H         67.68800000  *  166.92100000  * -47.10100000  *
    18       C         67.91500000  *  164.66400000  * -43.65700000  *
    19       O         67.55300000  *  165.30600000  * -42.67600000  *
    20       N         67.98400000  *  163.33800000  * -43.65800000  *
    21       H         68.28400000  *  162.85200000  * -44.48600000  *
    22       C         67.62300000  *  162.54400000  * -42.48700000  *
    23       H         67.90600000  *  163.07600000  * -41.58100000  *
    24       C         66.12800000  *  162.23500000  * -42.45900000  *
    25       H         65.92600000  *  161.47400000  * -43.20900000  *
    26       H         65.88500000  *  161.80700000  * -41.48800000  *
    27       C         65.21300000  *  163.39800000  * -42.74000000  *
    28       H         65.33100000  *  164.15700000  * -41.96400000  *
    29       H         65.45900000  *  163.81400000  * -43.69700000  *
    30       C         63.76600000  *  162.97200000  * -42.82400000  *
    31       O         63.44700000  *  162.11400000  * -43.67900000  *
    32       O         62.94800000  *  163.49400000  * -42.03400000  *
    33       C         68.34700000  *  161.22200000  * -42.57700000  *
    34       O         68.73000000  *  160.78800000  * -43.66100000  *
    35       N         68.52400000  *  160.57500000  * -41.43500000  *
    36       H         68.03000000  *  160.89100000  * -40.60600000  *
    37       C         69.17300000  *  159.28200000  * -41.42100000  *
    38       H         69.95100000  *  159.22100000  * -42.17800000  *
    39       C         69.75600000  *  159.01000000  * -40.03200000  *
    40       H         70.21900000  *  159.94300000  * -39.71800000  *
    41       H         68.96300000  *  158.79100000  * -39.31600000  *
    42       C         70.79800000  *  157.89600000  * -39.98300000  *
    43       H         70.31100000  *  156.94100000  * -40.17400000  *
    44       H         71.53800000  *  158.07300000  * -40.76900000  *
    45       C         71.50100000  *  157.83200000  * -38.61800000  *
    46       H         70.74900000  *  157.59000000  * -37.86000000  *
    47       H         72.23100000  *  157.01800000  * -38.63800000  *
    48       C         72.18600000  *  159.16200000  * -38.26900000  *
    49       H         72.83200000  *  159.42500000  * -39.10900000  *
    50       H         71.41200000  *  159.93100000  * -38.15600000  *
    51       N         73.00000000  *  159.10500000  * -37.02500000  *
    52       H         73.70000000  *  158.37000000  * -37.07400000  *
    53       H         73.43800000  *  159.98800000  * -36.79300000  *
    54       H         72.39100000  *  158.85400000  * -36.25100000  *
    55       C         68.06200000  *  158.28700000  * -41.74800000  *
    56       O         67.16300000  *  158.08100000  * -40.94600000  *
    57       N         68.05600000  *  157.70800000  * -42.95300000  *
    58       H         68.87100000  *  157.84100000  * -43.53300000  *
    59       C         67.03400000  *  156.73400000  * -43.40000000  *
    60       H         66.06200000  *  157.23100000  * -43.40700000  *
    61       C         67.32700000  *  156.22800000  * -44.83500000  *
    62       H         68.40500000  *  156.12600000  * -44.95300000  *
    63       C         66.69000000  *  154.86700000  * -45.15500000  *
    64       H         65.61100000  *  154.91200000  * -45.00500000  *
    65       H         66.89800000  *  154.60400000  * -46.18400000  *
    66       H         67.11400000  *  154.07400000  * -44.54000000  *
    67       C         66.81700000  *  157.27000000  * -45.84100000  *
    68       H         65.72600000  *  157.27800000  * -45.84000000  *
    69       H         67.15400000  *  158.24100000  * -45.49500000  *
    70       C         67.31300000  *  157.06900000  * -47.28100000  *
    71       H         66.86700000  *  156.18000000  * -47.72300000  *
    72       H         67.02600000  *  157.92600000  * -47.88600000  *
    73       H         68.39700000  *  156.97700000  * -47.29700000  *
    74       C         66.90900000  *  155.56500000  * -42.42200000  *
    75       O         65.80700000  *  155.22000000  * -41.99300000  *
    76       N         68.04100000  *  154.93800000  * -42.10500000  *
    77       H         68.91700000  *  155.28700000  * -42.47400000  *
    78       C         68.05900000  *  153.67400000  * -41.38700000  *
    79       H         67.42700000  *  153.75400000  * -40.50200000  *
    80       H         67.65900000  *  152.88900000  * -42.02800000  *
    81       C         69.45900000  *  153.26600000  * -40.95700000  *
    82       O         70.46200000  *  153.56900000  * -41.60800000  *
    83       N         69.50300000  *  152.54900000  * -39.84300000  *
    84       H         68.63000000  *  152.33800000  * -39.38000000  *
    85       C         70.70900000  *  151.93300000  * -39.30900000  *
    86       H         71.55600000  *  152.59000000  * -39.50900000  *
    87       C         70.55200000  *  151.78900000  * -37.78600000  *
    88       H         69.68300000  *  151.16700000  * -37.56600000  *
    89       H         71.44300000  *  151.31100000  * -37.39800000  *
    90       C         70.40800000  *  153.15200000  * -37.08400000  *
    91       H         71.26200000  *  153.77500000  * -37.36200000  *
    92       H         69.50400000  *  153.65300000  * -37.43700000  *
    93       C         70.33300000  *  153.02100000  * -35.55400000  *
    94       O         69.50700000  *  152.23100000  * -35.04000000  *
    95       O         71.07100000  *  153.74600000  * -34.84800000  *
    96       C         70.94300000  *  150.60000000  * -40.04500000  *
    97       O         70.18800000  *  149.64100000  * -39.86700000  *
    98       N         71.89600000  *  150.58600000  * -40.98400000  *
    99       H         72.52800000  *  151.37400000  * -41.05000000  *
   100       C         71.94400000  *  149.60900000  * -42.07900000  *
   101       H         70.92500000  *  149.35000000  * -42.37100000  *
   102       H         72.41400000  *  150.09400000  * -42.93500000  *
   103       C         72.70100000  *  148.30500000  * -41.80300000  *
   104       O         73.12400000  *  148.00500000  * -40.68800000  *
   105       N         72.89800000  *  147.52200000  * -42.86800000  *
   106       H         72.48400000  *  147.79600000  * -43.74900000  *
   107       C         73.66400000  *  146.25900000  * -42.87800000  *
   108       H         73.36600000  *  145.65600000  * -42.02000000  *
   109       C         73.36600000  *  145.45300000  * -44.15300000  *
   110       H         74.11900000  *  144.67600000  * -44.28500000  *
   111       C         71.99800000  *  144.79000000  * -44.05800000  *
   112       H         71.21300000  *  145.54500000  * -43.99400000  *
   113       H         71.83800000  *  144.16500000  * -44.93600000  *
   114       H         71.98200000  *  144.15200000  * -43.17500000  *
   115       O         73.37600000  *  146.30900000  * -45.27100000  *
   116       H         73.01700000  *  145.79700000  * -46.03200000  *
   117       C         75.17600000  *  146.44100000  * -42.78000000  *
   118       O         75.81400000  *  145.65800000  * -42.08600000  *
   119       N         75.74000000  *  147.45700000  * -43.44400000  *
   120       H         75.12800000  *  147.98800000  * -44.04400000  *
   121       C         77.19500000  *  147.68000000  * -43.57700000  *
   122       H         77.71900000  *  147.08000000  * -42.83200000  *
   123       C         77.65300000  *  147.20500000  * -44.97000000  *
   124       H         77.23700000  *  147.87700000  * -45.72200000  *
   125       H         78.74000000  *  147.28100000  * -45.03200000  *
   126       C         77.27800000  *  145.77700000  * -45.31600000  *
   127       C         77.68000000  *  144.73000000  * -44.46800000  *
   128       H         78.24900000  *  144.94200000  * -43.57100000  *
   129       C         77.33000000  *  143.40600000  * -44.77200000  *
   130       H         77.62600000  *  142.61100000  * -44.10800000  *
   131       C         76.60100000  *  143.11400000  * -45.94300000  *
   132       O         76.34400000  *  141.82100000  * -46.26600000  *
   133       H         77.00100000  *  141.25400000  * -45.83300000  *
   134       C         76.18200000  *  144.16400000  * -46.78600000  *
   135       H         75.60000000  *  143.94900000  * -47.66800000  *
   136       C         76.52500000  *  145.49300000  * -46.47400000  *
   137       H         76.21000000  *  146.29400000  * -47.12700000  *
   138       C         77.63600000  *  149.13700000  * -43.33100000  *
   139       O         78.74900000  *  149.52200000  * -43.69300000  *
   140       N         76.77000000  *  149.95700000  * -42.73100000  *
   141       H         75.88600000  *  149.58500000  * -42.41700000  *
   142       C         77.00600000  *  151.38000000  * -42.48400000  *
   143       H         77.60400000  *  151.50100000  * -41.58200000  *
   144       H         77.56800000  *  151.79100000  * -43.31300000  *
   145       C         75.70300000  *  152.16400000  * -42.31800000  *
   146       O         74.65100000  *  151.56500000  * -42.07300000  *
   147       N         75.75500000  *  153.49500000  * -42.44900000  *
   148       H         76.58800000  *  153.89400000  * -42.85900000  *
   149       C         74.59200000  *  154.32600000  * -42.21200000  *
   150       H         73.82600000  *  153.78000000  * -41.65800000  *
   151       C         74.95900000  *  155.54800000  * -41.37000000  *
   152       H         75.70700000  *  156.13900000  * -41.89300000  *
   153       C         73.73100000  *  156.40900000  * -41.13300000  *
   154       H         72.94300000  *  155.80300000  * -40.68200000  *
   155       H         73.98600000  *  157.21200000  * -40.45000000  *
   156       H         73.36800000  *  156.84900000  * -42.06500000  *
   157       C         75.54500000  *  155.09600000  * -40.05300000  *
   158       H         76.46000000  *  154.52800000  * -40.19800000  *
   159       H         75.77700000  *  155.95300000  * -39.42300000  *
   160       H         74.80500000  *  154.48400000  * -39.53200000  *
   161       C         74.01900000  *  154.79200000  * -43.53700000  *
   162       O         74.76100000  *  155.18400000  * -44.43700000  *
   163       N         72.69800000  *  154.64900000  * -43.67500000  *
   164       H         72.17100000  *  154.29800000  * -42.88300000  *
   165       C         71.91500000  *  155.09700000  * -44.83200000  *
   166       H         72.56900000  *  155.15100000  * -45.70000000  *
   167       C         70.76000000  *  154.12200000  * -45.15700000  *
   168       H         69.93400000  *  154.29700000  * -44.46800000  *
   169       C         70.26000000  *  154.36700000  * -46.58600000  *
   170       H         71.04600000  *  154.13900000  * -47.30600000  *
   171       H         69.39600000  *  153.73200000  * -46.78800000  *
   172       H         69.96300000  *  155.40700000  * -46.71000000  *
   173       C         71.14500000  *  152.64400000  * -45.02900000  *
   174       H         71.37700000  *  152.40500000  * -43.99000000  *
   175       H         70.29800000  *  152.02700000  * -45.32800000  *
   176       H         72.00600000  *  152.42200000  * -45.65400000  *
   177       C         71.35100000  *  156.48600000  * -44.53900000  *
   178       O         70.62400000  *  156.64000000  * -43.55400000  *
   179       N         71.62500000  *  157.49000000  * -45.37400000  *
   180       H         72.23900000  *  157.32200000  * -46.16900000  *
   181       C         71.01800000  *  158.79600000  * -45.21900000  *
   182       H         70.37900000  *  158.84300000  * -44.33800000  *
   183       C         72.10000000  *  159.86100000  * -45.06900000  *
   184       H         72.79900000  *  159.78100000  * -45.90500000  *
   185       H         71.63400000  *  160.84400000  * -45.14300000  *
   186       C         72.87100000  *  159.84300000  * -43.76800000  *
   187       C         72.34700000  *  160.43100000  * -42.61900000  *
   188       H         71.37700000  *  160.90600000  * -42.66800000  *
   189       C         73.06400000  *  160.45200000  * -41.42500000  *
   190       H         72.63300000  *  160.94600000  * -40.56800000  *
   191       C         74.33000000  *  159.87400000  * -41.37100000  *
   192       O         75.04700000  *  159.90100000  * -40.18700000  *
   193       H         74.69700000  *  160.54100000  * -39.56800000  *
   194       C         74.87500000  *  159.27800000  * -42.50300000  *
   195       H         75.78500000  *  158.71900000  * -42.41900000  *
   196       C         74.14000000  *  159.26700000  * -43.69600000  *
   197       H         74.51800000  *  158.73300000  * -44.56500000  *
   198       C         70.16700000  *  159.17400000  * -46.42900000  *
   199       O         70.41800000  *  158.72400000  * -47.55600000  *
   200       N         69.03200000  *  159.83700000  * -46.21300000  *
   201       H         68.84300000  *  160.14200000  * -45.26500000  *
   202       C         68.29400000  *  160.51100000  * -47.28300000  *
   203       H         68.28800000  *  159.90800000  * -48.19200000  *
   204       C         66.84700000  *  160.83000000  * -46.85300000  *
   205       H         66.33800000  *  159.91100000  * -46.57800000  *
   206       H         66.86000000  *  161.48400000  * -45.97800000  *
   207       C         66.02800000  *  161.49000000  * -47.97400000  *
   208       H         66.48700000  *  162.43800000  * -48.25900000  *
   209       H         66.01400000  *  160.82800000  * -48.84100000  *
   210       C         64.58800000  *  161.74600000  * -47.50200000  *
   211       H         64.14800000  *  160.80700000  * -47.16100000  *
   212       H         64.60800000  *  162.44800000  * -46.66600000  *
   213       C         63.73600000  *  162.32100000  * -48.64000000  *
   214       H         64.23800000  *  163.20900000  * -49.04000000  *
   215       H         63.68100000  *  161.57400000  * -49.44100000  *
   216       N         62.36800000  *  162.68000000  * -48.18000000  *
   217       H         62.39600000  *  163.38900000  * -47.46100000  *
   218       H         61.81100000  *  163.04900000  * -48.94000000  *
   219       H         61.88000000  *  161.88000000  * -47.80200000  *
   220       C         69.09700000  *  161.76800000  * -47.51100000  *
   221       O         69.32400000  *  162.50300000  * -46.55400000  *
   222       N         69.55500000  *  162.00600000  * -48.72500000  *
   223       H         69.34400000  *  161.34200000  * -49.46700000  *
   224       C         70.34900000  *  163.18200000  * -49.01700000  *
   225       H         70.22500000  *  163.93500000  * -48.24000000  *
   226       C         71.81400000  *  162.79200000  * -49.07000000  *
   227       H         71.97800000  *  162.06700000  * -49.86400000  *
   228       H         72.42900000  *  163.67700000  * -49.23900000  *
   229       H         72.10500000  *  162.33200000  * -48.12600000  *
   230       C         69.94400000  *  163.83800000  * -50.32200000  *
   231       O         69.22100000  *  163.25100000  * -51.12800000  *
   232       N         70.40700000  *  165.06400000  * -50.52400000  *
   233       H         70.93200000  *  165.53000000  * -49.79600000  *
   234       C         70.10800000  *  165.77900000  * -51.74600000  *
   235       H         69.54100000  *  165.15900000  * -52.44400000  *
   236       H         69.52200000  *  166.69100000  * -51.53000000  *
   237       H         71.05900000  *  166.04700000  * -52.23900000  *
   238       H         68.08600000  *  164.80700000  * -56.55000000  *
   239       C         68.21200000  *  164.39600000  * -55.53600000  *
   240       O         69.28600000  *  164.50800000  * -54.94200000  *
   241       N         67.13500000  *  163.82300000  * -55.01100000  *
   242       H         66.34000000  *  163.66800000  * -55.61500000  *
   243       C         67.13600000  *  163.21200000  * -53.68800000  *
   244       H         67.86300000  *  163.70700000  * -53.05000000  *
   245       C         65.75500000  *  163.32300000  * -53.02900000  *
   246       H         64.97700000  *  163.06900000  * -53.75000000  *
   247       C         65.64800000  *  162.36600000  * -51.85200000  *
   248       H         66.47200000  *  162.51800000  * -51.15200000  *
   249       H         64.69700000  *  162.53800000  * -51.34700000  *
   250       H         65.65200000  *  161.33900000  * -52.20000000  *
   251       C         65.54000000  *  164.75000000  * -52.56600000  *
   252       H         65.62600000  *  165.42400000  * -53.41600000  *
   253       H         64.53500000  *  164.85100000  * -52.15900000  *
   254       H         66.28400000  *  165.00300000  * -51.81000000  *
   255       C         67.52600000  *  161.76000000  * -53.84700000  *
   256       O         66.97900000  *  161.02800000  * -54.68200000  *
   257       N         68.49600000  *  161.34900000  * -53.04800000  *
   258       H         68.91100000  *  161.99700000  * -52.39100000  *
   259       C         69.01100000  *  159.99200000  * -53.10200000  *
   260       H         68.34600000  *  159.34100000  * -53.67900000  *
   261       C         70.37400000  *  159.97400000  * -53.81600000  *
   262       H         70.77500000  *  158.96500000  * -53.87500000  *
   263       C         70.21400000  *  160.50700000  * -55.21300000  *
   264       H         69.95700000  *  161.56600000  * -55.19000000  *
   265       H         71.15100000  *  160.39100000  * -55.75600000  *
   266       H         69.44200000  *  159.95000000  * -55.73600000  *
   267       C         71.37900000  *  160.85000000  * -53.05700000  *
   268       H         71.56500000  *  160.44500000  * -52.06400000  *
   269       H         72.31500000  *  160.84900000  * -53.61300000  *
   270       H         71.03600000  *  161.88400000  * -52.98400000  *
   271       C         69.19200000  *  159.37200000  * -51.72900000  *
   272       O         69.02000000  *  160.03600000  * -50.68600000  *
   273       N         69.38400000  *  158.05900000  * -51.70400000  *
   274       H         69.46400000  *  157.56700000  * -52.58900000  *
   275       C         69.76000000  *  157.32100000  * -50.51400000  *
   276       H         69.47700000  *  157.87900000  * -49.62300000  *
   277       C         69.01000000  *  155.99700000  * -50.48700000  *
   278       H         69.25300000  *  155.42800000  * -51.38200000  *
   279       H         69.29700000  *  155.42500000  * -49.60400000  *
   280       H         67.93900000  *  156.19100000  * -50.45600000  *
   281       C         71.27800000  *  157.14200000  * -50.53900000  *
   282       O         71.81400000  *  156.46300000  * -51.42100000  *
   283       N         71.97000000  *  157.79100000  * -49.60300000  *
   284       H         71.44500000  *  158.28300000  * -48.88900000  *
   285       C         73.41300000  *  157.73400000  * -49.53500000  *
   286       H         73.80300000  *  157.43200000  * -50.50200000  *
   287       C         73.96100000  *  159.11400000  * -49.18200000  *
   288       H         73.49200000  *  159.84000000  * -49.85100000  *
   289       H         73.62800000  *  159.35800000  * -48.16900000  *
   290       C         75.47300000  *  159.31600000  * -49.26600000  *
   291       H         75.96900000  *  158.63700000  * -48.57100000  *
   292       C         75.94900000  *  159.02000000  * -50.68400000  *
   293       H         75.44100000  *  159.71800000  * -51.34800000  *
   294       H         77.02400000  *  159.18800000  * -50.76300000  *
   295       H         75.74700000  *  157.98700000  * -50.96800000  *
   296       C         75.80400000  *  160.74000000  * -48.87900000  *
   297       H         75.43700000  *  160.94600000  * -47.87600000  *
   298       H         76.88200000  *  160.87900000  * -48.92200000  *
   299       H         75.32000000  *  161.42900000  * -49.57600000  *
   300       C         73.82100000  *  156.71600000  * -48.48500000  *
   301       O         73.39600000  *  156.78100000  * -47.33400000  *
   302       N         74.65700000  *  155.76200000  * -48.88300000  *
   303       H         74.90300000  *  155.74300000  * -49.87100000  *
   304       C         75.13000000  *  154.64400000  * -48.05900000  *
   305       H         74.60800000  *  154.63200000  * -47.10100000  *
   306       C         74.82300000  *  153.34400000  * -48.83700000  *
   307       H         74.25200000  *  153.58700000  * -49.73700000  *
   308       H         75.74800000  *  152.87700000  * -49.17000000  *
   309       C         73.99800000  *  152.30000000  * -48.08400000  *
   310       H         73.14900000  *  152.78300000  * -47.60100000  *
   311       H         73.60400000  *  151.61600000  * -48.83400000  *
   312       C         74.82600000  *  151.51400000  * -47.05100000  *
   313       H         75.83600000  *  151.34900000  * -47.42800000  *
   314       H         74.90400000  *  152.10800000  * -46.13700000  *
   315       C         74.18600000  *  150.15300000  * -46.72600000  *
   316       H         74.71200000  *  149.72300000  * -45.86700000  *
   317       H         73.14900000  *  150.32800000  * -46.42000000  *
   318       N         74.24100000  *  149.20900000  * -47.88500000  *
   319       H         75.19000000  *  148.95000000  * -48.12600000  *
   320       H         73.72300000  *  148.33600000  * -47.70800000  *
   321       H         73.80500000  *  149.60300000  * -48.71000000  *
   322       C         76.62400000  *  154.83600000  * -47.79400000  *
   323       O         77.41800000  *  154.65100000  * -48.70800000  *
   324       N         77.01700000  *  155.22600000  * -46.58100000  *
   325       H         76.29800000  *  155.26800000  * -45.86500000  *
   326       C         78.42200000  *  155.28900000  * -46.15900000  *
   327       H         79.06600000  *  155.59300000  * -46.98900000  *
   328       C         78.56700000  *  156.26000000  * -44.97900000  *
   329       H         78.02700000  *  155.87500000  * -44.10900000  *
   330       H         79.62500000  *  156.33900000  * -44.73000000  *
   331       C         78.01500000  *  157.64300000  * -45.34000000  *
   332       H         78.45100000  *  157.95800000  * -46.27300000  *
   333       H         76.93600000  *  157.57500000  * -45.50000000  *
   334       C         78.25100000  *  158.72500000  * -44.27900000  *
   335       H         77.97800000  *  159.68000000  * -44.73200000  *
   336       H         77.56000000  *  158.53300000  * -43.46900000  *
   337       C         79.67700000  *  158.85000000  * -43.70900000  *
   338       H         80.38400000  *  158.36300000  * -44.39700000  *
   339       H         79.95000000  *  159.91100000  * -43.68600000  *
   340       N         79.78800000  *  158.26900000  * -42.33500000  *
   341       H         79.63700000  *  157.26100000  * -42.37000000  *
   342       H         80.69600000  *  158.42600000  * -41.93200000  *
   343       H         79.10400000  *  158.64600000  * -41.70100000  *
   344       C         78.82300000  *  153.89100000  * -45.72900000  *
   345       O         78.09100000  *  153.31500000  * -44.93700000  *
   346       N         79.90700000  *  153.32000000  * -46.24700000  *
   347       H         80.40500000  *  153.76400000  * -47.01000000  *
   348       C         80.34300000  *  152.02200000  * -45.76800000  *
   349       H         79.49500000  *  151.49800000  * -45.35900000  *
   350       C         80.94400000  *  151.18600000  * -46.89500000  *
   351       H         81.78600000  *  151.78200000  * -47.16900000  *
   352       C         81.42400000  *  149.85200000  * -46.34500000  *
   353       H         80.65600000  *  149.35200000  * -45.75200000  *
   354       H         81.67900000  *  149.19900000  * -47.17900000  *
   355       H         82.34500000  *  149.95700000  * -45.76100000  *
   356       C         79.89700000  *  150.97600000  * -47.99700000  *
   357       H         79.60200000  *  151.87000000  * -48.50000000  *
   358       H         80.28300000  *  150.30500000  * -48.75000000  *
   359       C         78.59100000  *  150.36100000  * -47.52600000  *
   360       H         78.17700000  *  150.90100000  * -46.69000000  *
   361       H         77.89400000  *  150.33700000  * -48.36300000  *
   362       H         78.77100000  *  149.33300000  * -47.20900000  *
   363       C         81.33300000  *  152.07100000  * -44.61400000  *
   364       O         82.16700000  *  152.98000000  * -44.51900000  *
   365       N         81.21100000  *  151.07100000  * -43.74300000  *
   366       H         80.50300000  *  150.36100000  * -43.92800000  *
   367       C         82.04400000  *  150.90200000  * -42.55200000  *
   368       H         81.47500000  *  151.18100000  * -41.66300000  *
   369       H         82.35800000  *  149.86100000  * -42.45900000  *
   370       H         82.94700000  *  151.51400000  * -42.62000000  *
   371       H         81.25700000  *  144.04600000  * -57.89900000  *
   372       C         80.50000000  *  144.84100000  * -57.88800000  *
   373       O         79.71500000  *  144.99000000  * -58.82400000  *
   374       N         80.49900000  *  145.60300000  * -56.79700000  *
   375       H         81.28000000  *  145.52500000  * -56.16600000  *
   376       C         79.57000000  *  146.70600000  * -56.61200000  *
   377       H         78.57500000  *  146.34400000  * -56.42300000  *
   378       C         80.00500000  *  147.61000000  * -55.44200000  *
   379       H         80.89800000  *  148.18000000  * -55.68500000  *
   380       C         78.90600000  *  148.60800000  * -55.12500000  *
   381       H         77.92000000  *  148.14100000  * -55.17600000  *
   382       H         79.04500000  *  148.98700000  * -54.11600000  *
   383       H         78.93800000  *  149.43600000  * -55.83300000  *
   384       C         80.32100000  *  146.76200000  * -54.20900000  *
   385       H         81.19200000  *  146.13400000  * -54.40600000  *
   386       H         80.59400000  *  147.42200000  * -53.38900000  *
   387       C         79.18400000  *  145.87900000  * -53.76500000  *
   388       H         78.77800000  *  145.31100000  * -54.59400000  *
   389       H         79.50900000  *  145.12200000  * -53.06500000  *
   390       H         78.38800000  *  146.48300000  * -53.33500000  *
   391       C         79.54300000  *  147.54500000  * -57.87900000  *
   392       O         78.48200000  *  147.77900000  * -58.45100000  *
   393       N         80.72300000  *  147.98900000  * -58.30900000  *
   394       H         81.55800000  *  147.70100000  * -57.81200000  *
   395       C         80.85900000  *  148.80400000  * -59.51100000  *
   396       H         80.33900000  *  149.74600000  * -59.38600000  *
   397       H         81.92800000  *  148.98500000  * -59.72900000  *
   398       H         80.37800000  *  148.32200000  * -60.38100000  *
   399       H         78.96400000  *  146.08700000  * -61.65600000  *
   400       C         77.87300000  *  146.08700000  * -61.51600000  *
   401       O         77.11500000  *  145.89500000  * -62.46400000  *
   402       N         77.44600000  *  146.31800000  * -60.28000000  *
   403       H         78.13400000  *  146.42500000  * -59.54900000  *
   404       C         76.02800000  *  146.35200000  * -59.94500000  *
   405       H         75.53300000  *  145.47600000  * -60.35900000  *
   406       C         75.84100000  *  146.37400000  * -58.43100000  *
   407       H         76.20500000  *  147.30400000  * -58.01800000  *
   408       H         74.76300000  *  146.35700000  * -58.24200000  *
   409       C         76.47200000  *  145.22200000  * -57.65900000  *
   410       H         77.55000000  *  145.23900000  * -57.74900000  *
   411       C         76.08000000  *  145.34100000  * -56.19200000  *
   412       H         74.99900000  *  145.23000000  * -56.07700000  *
   413       H         76.57300000  *  144.55300000  * -55.62900000  *
   414       H         76.38500000  *  146.30900000  * -55.80100000  *
   415       C         75.99600000  *  143.89000000  * -58.23600000  *
   416       H         76.41500000  *  143.73000000  * -59.22900000  *
   417       H         76.32800000  *  143.07800000  * -57.59100000  *
   418       H         74.90500000  *  143.87400000  * -58.30500000  *
   419       C         75.32200000  *  147.55900000  * -60.54800000  *
   420       O         74.09500000  *  147.56800000  * -60.66200000  *
   421       N         76.08400000  *  148.63100000  * -60.82900000  *
   422       H         77.08200000  *  148.53500000  * -60.67700000  *
   423       C         75.60100000  *  149.83300000  * -61.53400000  *
   424       H         74.83700000  *  150.33500000  * -60.94100000  *
   425       H         76.43800000  *  150.53300000  * -61.75900000  *
   426       H         75.13800000  *  149.54900000  * -62.49200000  *
   427       H         62.79000000  *  145.77200000  * -59.27600000  *
   428       C         63.71000000  *  145.72000000  * -58.67500000  *
   429       O         63.77900000  *  145.02200000  * -57.66400000  *
   430       N         64.72400000  *  146.45200000  * -59.11400000  *
   431       H         64.63800000  *  147.05100000  * -59.92700000  *
   432       C         65.97100000  *  146.53500000  * -58.38100000  *
   433       H         65.88400000  *  146.09200000  * -57.38600000  *
   434       C         67.11600000  *  145.87700000  * -59.11400000  *
   435       H         67.33600000  *  146.42600000  * -60.03000000  *
   436       C         68.35100000  *  145.87800000  * -58.21400000  *
   437       H         68.14700000  *  145.31400000  * -57.31800000  *
   438       H         69.21000000  *  145.44500000  * -58.72400000  *
   439       H         68.64100000  *  146.89000000  * -57.94500000  *
   440       C         66.72800000  *  144.44400000  * -59.47800000  *
   441       H         66.54900000  *  143.87300000  * -58.56400000  *
   442       H         65.81500000  *  144.42400000  * -60.06800000  *
   443       C         67.77400000  *  143.72700000  * -60.29600000  *
   444       H         68.68300000  *  143.57700000  * -59.72200000  *
   445       H         67.37700000  *  142.75300000  * -60.59800000  *
   446       H         68.02300000  *  144.31300000  * -61.18000000  *
   447       C         66.29500000  *  148.01000000  * -58.22000000  *
   448       O         66.21200000  *  148.78000000  * -59.18400000  *
   449       N         66.55100000  *  148.44100000  * -56.98200000  *
   450       H         66.62000000  *  147.76000000  * -56.23000000  *
   451       C         66.88600000  *  149.83900000  * -56.68500000  *
   452       H         66.07000000  *  150.48000000  * -57.02000000  *
   453       C         67.08500000  *  150.05500000  * -55.17900000  *
   454       H         67.89400000  *  149.41400000  * -54.82600000  *
   455       C         67.42900000  *  151.51000000  * -54.84100000  *
   456       H         66.58900000  *  152.16400000  * -55.07500000  *
   457       H         67.65400000  *  151.58100000  * -53.77900000  *
   458       H         68.30000000  *  151.84500000  * -55.39800000  *
   459       C         65.81100000  *  149.71200000  * -54.40500000  *
   460       H         65.54700000  *  148.66600000  * -54.53000000  *
   461       H         65.99600000  *  149.88700000  * -53.35200000  *
   462       H         64.98500000  *  150.33200000  * -54.74400000  *
   463       C         68.15000000  *  150.21700000  * -57.45200000  *
   464       O         69.17800000  *  149.54700000  * -57.32600000  *
   465       N         68.08000000  *  151.28300000  * -58.25100000  *
   466       H         67.22500000  *  151.80400000  * -58.24500000  *
   467       C         69.18900000  *  151.69800000  * -59.08000000  *
   468       H         69.52500000  *  150.81900000  * -59.63900000  *
   469       C         68.73700000  *  152.76800000  * -60.08300000  *
   470       H         67.83400000  *  152.41100000  * -60.57900000  *
   471       H         68.47700000  *  153.68100000  * -59.53700000  *
   472       C         69.79100000  *  153.06900000  * -61.13100000  *
   473       H         70.72100000  *  153.35000000  * -60.64200000  *
   474       H         69.97400000  *  152.16800000  * -61.71600000  *
   475       C         69.35100000  *  154.17900000  * -62.08100000  *
   476       H         68.50200000  *  153.81400000  * -62.66100000  *
   477       H         69.02300000  *  155.05600000  * -61.52200000  *
   478       C         70.49800000  *  154.55900000  * -63.02400000  *
   479       H         71.33900000  *  154.89000000  * -62.40800000  *
   480       H         70.81900000  *  153.66100000  * -63.56600000  *
   481       N         70.11800000  *  155.62600000  * -63.99700000  *
   482       H         69.74700000  *  156.41600000  * -63.48300000  *
   483       H         70.92600000  *  155.93300000  * -64.52500000  *
   484       H         69.41500000  *  155.27800000  * -64.63600000  *
   485       C         70.36000000  *  152.21400000  * -58.25300000  *
   486       O         70.19400000  *  153.07400000  * -57.38700000  *
   487       N         71.53700000  *  151.64500000  * -58.50700000  *
   488       H         71.59600000  *  150.90400000  * -59.18600000  *
   489       C         72.75000000  *  152.07400000  * -57.83600000  *
   490       H         72.53800000  *  152.52600000  * -56.87100000  *
   491       C         73.72700000  *  150.91100000  * -57.67000000  *
   492       H         73.31500000  *  150.22100000  * -56.93700000  *
   493       H         73.77900000  *  150.36900000  * -58.62000000  *
   494       C         75.16700000  *  151.27300000  * -57.28800000  *
   495       H         75.65500000  *  151.80300000  * -58.10000000  *
   496       C         75.18300000  *  152.16500000  * -56.05900000  *
   497       H         74.60800000  *  151.72100000  * -55.25200000  *
   498       H         76.21000000  *  152.29600000  * -55.73500000  *
   499       H         74.78900000  *  153.14000000  * -56.31200000  *
   500       C         75.93300000  *  149.99400000  * -57.01300000  *
   501       H         75.98300000  *  149.42100000  * -57.93300000  *
   502       H         76.94600000  *  150.24200000  * -56.71200000  *
   503       H         75.43500000  *  149.41000000  * -56.23200000  *
   504       C         73.31900000  *  153.11300000  * -58.79500000  *
   505       O         73.76900000  *  152.77900000  * -59.89700000  *
   506       N         73.26700000  *  154.36900000  * -58.37800000  *
   507       H         72.92600000  *  154.57000000  * -57.44900000  *
   508       C         73.73400000  *  155.46600000  * -59.19700000  *
   509       H         73.47500000  *  155.26500000  * -60.23600000  *
   510       C         73.02500000  *  156.74200000  * -58.76000000  *
   511       H         73.45000000  *  157.06300000  * -57.80900000  *
   512       H         73.23600000  *  157.53300000  * -59.48700000  *
   513       C         71.51300000  *  156.60300000  * -58.58700000  *
   514       H         71.27400000  *  155.80900000  * -57.88500000  *
   515       C         70.97400000  *  157.88000000  * -58.01900000  *
   516       H         71.37000000  *  158.74600000  * -58.56000000  *
   517       H         69.88800000  *  157.89100000  * -58.09300000  *
   518       H         71.22100000  *  157.96000000  * -56.96600000  *
   519       C         70.85100000  *  156.29000000  * -59.92300000  *
   520       H         71.28300000  *  155.39700000  * -60.34200000  *
   521       H         69.78900000  *  156.14400000  * -59.75100000  *
   522       H         71.00300000  *  157.12700000  * -60.60700000  *
   523       C         75.24500000  *  155.67800000  * -59.15800000  *
   524       O         75.83900000  *  156.04700000  * -60.17600000  *
   525       N         75.86200000  *  155.44600000  * -57.99600000  *
   526       H         75.29500000  *  155.17900000  * -57.20400000  *
   527       C         77.30800000  *  155.64700000  * -57.82900000  *
   528       H         77.80800000  *  155.40400000  * -58.76600000  *
   529       C         77.60000000  *  157.11700000  * -57.51900000  *
   530       H         76.91700000  *  157.54400000  * -56.80300000  *
   531       H         78.58200000  *  157.17000000  * -57.04800000  *
   532       C         77.65600000  *  157.97500000  * -58.75600000  *
   533       O         78.67800000  *  157.91700000  * -59.48300000  *
   534       O         76.67400000  *  158.70400000  * -59.00000000  *
   535       C         77.97900000  *  154.81700000  * -56.73400000  *
   536       O         77.37100000  *  154.52100000  * -55.70400000  *
   537       N         79.24700000  *  154.47700000  * -56.96600000  *
   538       H         79.69800000  *  154.82400000  * -57.79800000  *
   539       C         80.06100000  *  153.73800000  * -56.00300000  *
   540       H         79.55400000  *  153.69900000  * -55.05200000  *
   541       C         80.36600000  *  152.29800000  * -56.50400000  *
   542       H         79.42700000  *  151.75200000  * -56.56200000  *
   543       C         80.98100000  *  152.34300000  * -57.88400000  *
   544       H         82.06600000  *  152.43300000  * -57.82100000  *
   545       H         80.74600000  *  151.41400000  * -58.37900000  *
   546       H         80.59600000  *  153.14500000  * -58.51000000  *
   547       C         81.29900000  *  151.58800000  * -55.53900000  *
   548       H         80.81100000  *  151.54900000  * -54.57200000  *
   549       H         81.47300000  *  150.57200000  * -55.87800000  *
   550       H         82.25900000  *  152.09200000  * -55.44900000  *
   551       C         81.36500000  *  154.53600000  * -55.81000000  *
   552       O         82.27000000  *  154.48900000  * -56.64700000  *
   553       N         81.45200000  *  155.28200000  * -54.71000000  *
   554       H         80.67600000  *  155.30400000  * -54.06400000  *
   555       C         82.62100000  *  156.11100000  * -54.44300000  *
   556       H         83.20500000  *  156.21800000  * -55.35800000  *
   557       H         82.32200000  *  157.12800000  * -54.14500000  *
   558       H         83.29700000  *  155.73900000  * -53.65600000  *
   559       H         84.58000000  *  155.17100000  * -47.07300000  *
   560       C         84.22500000  *  154.98400000  * -48.09100000  *
   561       O         84.63900000  *  155.65900000  * -49.04200000  *
   562       N         83.35800000  *  153.99100000  * -48.22200000  *
   563       H         83.13600000  *  153.42800000  * -47.41700000  *
   564       C         82.77600000  *  153.65100000  * -49.50600000  *
   565       H         83.37000000  *  154.04700000  * -50.31700000  *
   566       C         82.71900000  *  152.14000000  * -49.66000000  *
   567       H         83.74000000  *  151.87500000  * -49.95700000  *
   568       H         82.64400000  *  151.54600000  * -48.78400000  *
   569       C         81.82600000  *  151.61900000  * -50.77900000  *
   570       H         80.79100000  *  151.88400000  * -50.58700000  *
   571       C         82.25800000  *  152.23100000  * -52.09200000  *
   572       H         83.31100000  *  152.49100000  * -52.08900000  *
   573       H         82.09300000  *  151.51300000  * -52.88400000  *
   574       H         81.65400000  *  153.10900000  * -52.31200000  *
   575       C         81.89900000  *  150.09400000  * -50.82200000  *
   576       H         81.91300000  *  149.66400000  * -49.82700000  *
   577       H         81.05200000  *  149.70600000  * -51.39100000  *
   578       H         82.82500000  *  149.80300000  * -51.32100000  *
   579       C         81.36700000  *  154.23200000  * -49.54800000  *
   580       O         80.51800000  *  153.85700000  * -48.74500000  *
   581       N         81.13100000  *  155.16100000  * -50.46700000  *
   582       H         81.84500000  *  155.34800000  * -51.16200000  *
   583       C         79.82200000  *  155.78100000  * -50.60800000  *
   584       H         79.27400000  *  155.67000000  * -49.68700000  *
   585       C         79.96700000  *  157.27800000  * -50.86800000  *
   586       H         80.42300000  *  157.50400000  * -51.79700000  *
   587       H         78.95400000  *  157.66400000  * -50.98900000  *
   588       C         80.57600000  *  158.04300000  * -49.72300000  *
   589       C         79.79300000  *  158.48000000  * -48.65600000  *
   590       H         78.73500000  *  158.25400000  * -48.66900000  *
   591       C         80.35600000  *  159.18600000  * -47.59400000  *
   592       H         79.75300000  *  159.56200000  * -46.79700000  *
   593       C         81.71600000  *  159.45200000  * -47.58700000  *
   594       O         82.27600000  *  160.12500000  * -46.52100000  *
   595       H         83.20600000  *  160.30800000  * -46.74500000  *
   596       C         82.51400000  *  159.02600000  * -48.63700000  *
   597       H         83.58200000  *  159.23300000  * -48.65000000  *
   598       C         81.94100000  *  158.32800000  * -49.69800000  *
   599       H         82.57400000  *  157.98100000  * -50.50200000  *
   600       C         79.04800000  *  155.15800000  * -51.76500000  *
   601       O         79.54400000  *  155.08000000  * -52.88800000  *
   602       N         77.86200000  *  154.62100000  * -51.49500000  *
   603       H         77.53600000  *  154.64200000  * -50.53500000  *
   604       C         76.98100000  *  154.05400000  * -52.51500000  *
   605       H         77.50700000  *  154.00700000  * -53.46200000  *
   606       C         76.54700000  *  152.62000000  * -52.16900000  *
   607       H         75.84500000  *  152.65600000  * -51.34400000  *
   608       H         76.01300000  *  152.21900000  * -53.03200000  *
   609       C         77.68300000  *  151.65100000  * -51.80200000  *
   610       H         78.18800000  *  151.99500000  * -50.90000000  *
   611       C         77.11700000  *  150.25700000  * -51.53600000  *
   612       H         76.63500000  *  149.86700000  * -52.43500000  *
   613       H         77.92300000  *  149.58200000  * -51.24300000  *
   614       H         76.39000000  *  150.30300000  * -50.72800000  *
   615       C         78.69800000  *  151.53400000  * -52.93200000  *
   616       H         79.21600000  *  152.48200000  * -53.05600000  *
   617       H         79.43400000  *  150.77400000  * -52.68300000  *
   618       H         78.19400000  *  151.27200000  * -53.86300000  *
   619       C         75.78400000  *  154.98300000  * -52.67300000  *
   620       O         75.09900000  *  155.25300000  * -51.68300000  *
   621       N         75.54700000  *  155.50800000  * -53.87800000  *
   622       H         76.14500000  *  155.25500000  * -54.66000000  *
   623       C         74.40900000  *  156.37500000  * -54.09400000  *
   624       H         73.97600000  *  156.70200000  * -53.15000000  *
   625       C         74.83400000  *  157.63700000  * -54.81800000  *
   626       H         75.25500000  *  157.34500000  * -55.76600000  *
   627       C         73.61400000  *  158.52200000  * -55.10900000  *
   628       H         73.11700000  *  158.76900000  * -54.17500000  *
   629       H         73.94100000  *  159.43100000  * -55.61500000  *
   630       H         72.91600000  *  158.00900000  * -55.76200000  *
   631       C         75.84000000  *  158.38200000  * -53.94900000  *
   632       H         75.28100000  *  158.78400000  * -53.13000000  *
   633       H         76.65600000  *  157.75800000  * -53.60500000  *
   634       H         76.26100000  *  159.20400000  * -54.52500000  *
   635       C         73.31400000  *  155.64400000  * -54.85300000  *
   636       O         73.49500000  *  155.22100000  * -55.99400000  *
   637       N         72.21300000  *  155.37600000  * -54.15700000  *
   638       H         72.14500000  *  155.72800000  * -53.20600000  *
   639       C         71.03200000  *  154.71300000  * -54.70000000  *
   640       H         71.27900000  *  154.25500000  * -55.65300000  *
   641       C         70.56600000  *  153.61300000  * -53.74000000  *
   642       H         70.45000000  *  154.03900000  * -52.74300000  *
   643       H         69.58100000  *  153.27600000  * -54.05800000  *
   644       C         71.47800000  *  152.40400000  * -53.65500000  *
   645       C         71.29200000  *  151.31800000  * -54.53300000  *
   646       H         70.52600000  *  151.35800000  * -55.29200000  *
   647       C         72.09500000  *  150.17000000  * -54.42200000  *
   648       H         71.94000000  *  149.33500000  * -55.09300000  *
   649       C         73.09600000  *  150.10500000  * -53.43800000  *
   650       H         73.71500000  *  149.22100000  * -53.35400000  *
   651       C         73.29000000  *  151.19000000  * -52.56600000  *
   652       H         74.05400000  *  151.13400000  * -51.80500000  *
   653       C         72.48700000  *  152.34000000  * -52.67400000  *
   654       H         72.63600000  *  153.16900000  * -51.99600000  *
   655       C         69.91100000  *  155.72900000  * -54.93200000  *
   656       O         69.78300000  *  156.70200000  * -54.18800000  *
   657       N         69.07700000  *  155.51300000  * -55.95000000  *
   658       H         69.22200000  *  154.68800000  * -56.52400000  *
   659       C         67.81100000  *  156.25300000  * -56.07600000  *
   660       H         68.05100000  *  157.30300000  * -56.24500000  *
   661       C         67.01100000  *  155.75500000  * -57.29200000  *
   662       H         66.13700000  *  156.39800000  * -57.40000000  *
   663       H         67.62600000  *  155.85300000  * -58.18700000  *
   664       C         66.54800000  *  154.29600000  * -57.16000000  *
   665       H         67.42600000  *  153.65600000  * -57.07500000  *
   666       H         65.96300000  *  154.18700000  * -56.25000000  *
   667       C         65.67000000  *  153.80700000  * -58.31500000  *
   668       O         65.13700000  *  154.62500000  * -59.09800000  *
   669       O         65.47900000  *  152.57300000  * -58.40600000  *
   670       C         66.99000000  *  156.16100000  * -54.77100000  *
   671       O         66.93500000  *  155.10500000  * -54.13700000  *
   672       N         66.36300000  *  157.25400000  * -54.33300000  *
   673       H         66.39300000  *  158.10200000  * -54.88100000  *
   674       C         65.50100000  *  157.22800000  * -53.14800000  *
   675       H         65.97600000  *  156.60900000  * -52.38400000  *
   676       C         65.37000000  *  158.64100000  * -52.57100000  *
   677       H         66.36300000  *  159.00500000  * -52.30900000  *
   678       H         64.96300000  *  159.29900000  * -53.34000000  *
   679       C         64.49500000  *  158.72000000  * -51.33400000  *
   680       C         63.20200000  *  159.27100000  * -51.41100000  *
   681       H         62.82700000  *  159.65200000  * -52.35200000  *
   682       C         62.38700000  *  159.32000000  * -50.26700000  *
   683       H         61.39100000  *  159.73800000  * -50.33200000  *
   684       C         62.86100000  *  158.81700000  * -49.04200000  *
   685       H         62.23200000  *  158.84800000  * -48.16300000  *
   686       C         64.15400000  *  158.27000000  * -48.96200000  *
   687       H         64.51800000  *  157.88300000  * -48.02100000  *
   688       C         64.96900000  *  158.22000000  * -50.10700000  *
   689       H         65.95900000  *  157.79000000  * -50.04500000  *
   690       C         64.12500000  *  156.61700000  * -53.46000000  *
   691       O         63.49100000  *  156.98000000  * -54.45500000  *
   692       N         63.64400000  *  155.73500000  * -52.57900000  *
   693       H         64.23400000  *  155.47600000  * -51.79800000  *
   694       C         62.25100000  *  155.27500000  * -52.53500000  *
   695       H         61.66300000  *  155.81300000  * -53.28100000  *
   696       C         62.14600000  *  153.76900000  * -52.83300000  *
   697       H         62.90200000  *  153.23500000  * -52.26000000  *
   698       H         61.16700000  *  153.43700000  * -52.48300000  *
   699       C         62.26500000  *  153.42000000  * -54.32900000  *
   700       H         61.87400000  *  154.24100000  * -54.92900000  *
   701       C         63.71400000  *  153.14700000  * -54.73000000  *
   702       H         64.12300000  *  152.34500000  * -54.11900000  *
   703       H         63.76500000  *  152.87500000  * -55.78300000  *
   704       H         64.31300000  *  154.04200000  * -54.57800000  *
   705       C         61.44600000  *  152.17000000  * -54.65700000  *
   706       H         60.40600000  *  152.32200000  * -54.36800000  *
   707       H         61.47600000  *  151.98200000  * -55.72900000  *
   708       H         61.84100000  *  151.30500000  * -54.12700000  *
   709       C         61.64300000  *  155.60800000  * -51.16900000  *
   710       O         62.32800000  *  155.60500000  * -50.14900000  *
   711       N         60.35700000  *  155.94600000  * -51.16000000  *
   712       H         59.86200000  *  155.94000000  * -52.04300000  *
   713       C         59.71000000  *  156.65300000  * -50.05300000  *
   714       H         60.36800000  *  157.46700000  * -49.74600000  *
   715       C         58.41400000  *  157.28800000  * -50.57700000  *
   716       H         57.67600000  *  156.50200000  * -50.73400000  *
   717       H         58.03800000  *  157.97100000  * -49.81700000  *
   718       C         58.57000000  *  158.05100000  * -51.87300000  *
   719       N         58.62200000  *  157.47800000  * -53.14900000  *
   720       C         58.80100000  *  158.49900000  * -54.00500000  *
   721       H         58.88100000  *  158.40200000  * -55.08200000  *
   722       N         58.86700000  *  159.66300000  * -53.33600000  *
   723       H         58.99700000  *  160.57500000  * -53.76400000  *
   724       C         58.72800000  *  159.40100000  * -51.99100000  *
   725       H         58.74400000  *  160.11900000  * -51.18000000  *
   726       C         59.44900000  *  155.81700000  * -48.78700000  *
   727       O         59.25600000  *  156.39800000  * -47.71900000  *
   728       N         59.43500000  *  154.48100000  * -48.88200000  *
   729       H         59.60200000  *  154.06600000  * -49.78800000  *
   730       C         59.08500000  *  153.57000000  * -47.78000000  *
   731       H         59.53900000  *  153.94700000  * -46.86200000  *
   732       C         57.54900000  *  153.59000000  * -47.60500000  *
   733       H         57.25100000  *  154.60100000  * -47.32600000  *
   734       H         57.06700000  *  153.35000000  * -48.55500000  *
   735       C         57.03200000  *  152.61800000  * -46.53300000  *
   736       H         56.87200000  *  151.64200000  * -46.98700000  *
   737       H         57.77900000  *  152.52100000  * -45.74800000  *
   738       C         55.74100000  *  153.09200000  * -45.87500000  *
   739       O         55.74800000  *  153.73200000  * -44.83600000  *
   740       N         54.58800000  *  152.79600000  * -46.43500000  *
   741       H         53.75900000  *  153.12900000  * -45.96600000  *
   742       H         54.55400000  *  152.29900000  * -47.30700000  *
   743       C         59.62400000  *  152.14300000  * -48.01400000  *
   744       O         59.66700000  *  151.67500000  * -49.15300000  *
   745       N         60.02100000  *  151.44100000  * -46.94400000  *
   746       H         59.97000000  *  151.87500000  * -46.03600000  *
   747       C         60.32400000  *  150.00000000  * -46.98500000  *
   748       H         60.62600000  *  149.76700000  * -48.00200000  *
   749       C         61.54400000  *  149.65300000  * -46.10600000  *
   750       H         61.85700000  *  148.64200000  * -46.37000000  *
   751       H         62.36100000  *  150.32400000  * -46.37700000  *
   752       C         61.34000000  *  149.69600000  * -44.58300000  *
   753       O         60.25500000  *  149.31000000  * -44.10300000  *
   754       O         62.29400000  *  150.07400000  * -43.86600000  *
   755       C         59.09500000  *  149.10700000  * -46.69900000  *
   756       O         58.06800000  *  149.55600000  * -46.17300000  *
   757       N         59.19100000  *  147.81900000  * -47.04800000  *
   758       H         60.03800000  *  147.50900000  * -47.52500000  *
   759       C         58.10100000  *  146.88000000  * -46.84100000  *
   760       H         57.21800000  *  147.32500000  * -47.29300000  *
   761       C         58.41200000  *  145.57700000  * -47.59200000  *
   762       H         58.61300000  *  145.80400000  * -48.64400000  *
   763       H         59.28800000  *  145.12100000  * -47.15800000  *
   764       C         57.28700000  *  144.52700000  * -47.51900000  *
   765       H         57.05600000  *  144.28000000  * -46.48700000  *
   766       C         56.00700000  *  145.04400000  * -48.19600000  *
   767       H         56.23500000  *  145.37800000  * -49.20200000  *
   768       H         55.26800000  *  144.24500000  * -48.23100000  *
   769       H         55.59500000  *  145.87000000  * -47.62900000  *
   770       C         57.76800000  *  143.24900000  * -48.17500000  *
   771       H         58.61500000  *  142.85400000  * -47.62000000  *
   772       H         56.97300000  *  142.50400000  * -48.17100000  *
   773       H         58.06400000  *  143.44500000  * -49.20700000  *
   774       C         57.76400000  *  146.61300000  * -45.36900000  *
   775       O         56.60900000  *  146.37600000  * -45.03000000  *
   776       N         58.75700000  *  146.67700000  * -44.48800000  *
   777       H         59.64000000  *  147.08600000  * -44.79000000  *
   778       C         58.49100000  *  146.46700000  * -43.07300000  *
   779       H         57.97900000  *  145.55100000  * -42.87200000  *
   780       C         59.78200000  *  146.47800000  * -42.25400000  *
   781       H         60.44800000  *  145.70000000  * -42.62000000  *
   782       H         60.28600000  *  147.44000000  * -42.35600000  *
   783       C         59.49200000  *  146.22900000  * -40.76500000  *
   784       H         58.94200000  *  147.08300000  * -40.37400000  *
   785       H         58.87100000  *  145.33200000  * -40.67600000  *
   786       C         60.74500000  *  146.03800000  * -39.93500000  *
   787       H         61.36100000  *  145.25900000  * -40.37900000  *
   788       H         61.30800000  *  146.97100000  * -39.90700000  *
   789       C         60.37600000  *  145.60700000  * -38.51700000  *
   790       H         59.98500000  *  144.58900000  * -38.53700000  *
   791       H         61.27900000  *  145.61300000  * -37.90300000  *
   792       N         59.34600000  *  146.53100000  * -37.94700000  *
   793       H         58.44600000  *  146.48100000  * -38.44300000  *
   794       H         59.09000000  *  146.27800000  * -37.00400000  *
   795       H         59.61300000  *  147.50600000  * -37.97800000  *
   796       C         57.55800000  *  147.53800000  * -42.51200000  *
   797       O         56.61300000  *  147.23400000  * -41.78300000  *
   798       N         57.83200000  *  148.81200000  * -42.80400000  *
   799       H         58.66000000  *  149.00800000  * -43.37000000  *
   800       C         57.00900000  *  149.93000000  * -42.32900000  *
   801       H         56.89700000  *  149.84200000  * -41.24700000  *
   802       C         57.72100000  *  151.25700000  * -42.63100000  *
   803       H         58.74500000  *  151.19700000  * -42.25800000  *
   804       H         57.75500000  *  151.41600000  * -43.70900000  *
   805       C         57.02500000  *  152.44600000  * -41.95000000  *
   806       H         56.02600000  *  152.57000000  * -42.36800000  *
   807       H         56.93300000  *  152.24200000  * -40.88200000  *
   808       C         57.82200000  *  153.74400000  * -42.13900000  *
   809       H         58.80500000  *  153.63200000  * -41.67700000  *
   810       H         57.95100000  *  153.94300000  * -43.20500000  *
   811       C         57.07500000  *  154.91200000  * -41.48400000  *
   812       H         56.09600000  *  155.01400000  * -41.96200000  *
   813       H         56.90800000  *  154.67300000  * -40.42900000  *
   814       N         57.83100000  *  156.18500000  * -41.59700000  *
   815       H         57.98000000  *  156.44000000  * -42.56300000  *
   816       H         57.33100000  *  156.94300000  * -41.15500000  *
   817       H         58.73300000  *  156.11500000  * -41.14900000  *
   818       C         55.60500000  *  149.84500000  * -42.92600000  *
   819       O         54.62700000  *  150.09300000  * -42.22800000  *
   820       N         55.49500000  *  149.42600000  * -44.18900000  *
   821       H         56.35000000  *  149.26300000  * -44.71300000  *
   822       C         54.20500000  *  149.26000000  * -44.85200000  *
   823       H         53.62600000  *  150.17500000  * -44.72500000  *
   824       C         54.41000000  *  148.98800000  * -46.34000000  *
   825       H         54.98900000  *  149.80200000  * -46.77700000  *
   826       H         55.00200000  *  148.07700000  * -46.45200000  *
   827       C         53.12600000  *  148.85300000  * -47.10800000  *
   828       C         52.23100000  *  149.92200000  * -47.18600000  *
   829       H         52.46300000  *  150.85600000  * -46.69900000  *
   830       C         51.01500000  *  149.79500000  * -47.88400000  *
   831       H         50.32500000  *  150.62800000  * -47.91800000  *
   832       C         50.69700000  *  148.60300000  * -48.50200000  *
   833       H         49.75200000  *  148.50200000  * -49.02000000  *
   834       C         51.58700000  *  147.52100000  * -48.43200000  *
   835       H         51.33500000  *  146.58300000  * -48.91200000  *
   836       C         52.79500000  *  147.65400000  * -47.73300000  *
   837       H         53.46700000  *  146.81000000  * -47.67200000  *
   838       C         53.37400000  *  148.12200000  * -44.22700000  *
   839       O         52.16900000  *  148.28300000  * -44.00900000  *
   840       N         54.01600000  *  146.98100000  * -43.96600000  *
   841       H         55.00900000  *  146.90600000  * -44.17900000  *
   842       C         53.33800000  *  145.83600000  * -43.34100000  *
   843       H         52.47600000  *  145.52800000  * -43.93400000  *
   844       C         54.29200000  *  144.65000000  * -43.17000000  *
   845       H         55.15800000  *  145.02700000  * -42.63600000  *
   846       H         53.80700000  *  143.89200000  * -42.54700000  *
   847       C         54.73100000  *  144.00400000  * -44.46100000  *
   848       H         53.84700000  *  143.61400000  * -44.95900000  *
   849       H         55.19200000  *  144.69400000  * -45.15000000  *
   850       S         55.79700000  *  142.58100000  * -44.15400000  *
   851       C         57.05400000  *  143.29200000  * -43.18800000  *
   852       H         56.67800000  *  143.65800000  * -42.23500000  *
   853       H         57.80700000  *  142.53400000  * -42.98200000  *
   854       H         57.44300000  *  144.07900000  * -43.80900000  *
   855       C         52.84400000  *  146.26000000  * -41.95900000  *
   856       O         51.68200000  *  146.03200000  * -41.61400000  *
   857       N         53.72600000  *  146.88400000  * -41.17900000  *
   858       H         54.70100000  *  146.95700000  * -41.45300000  *
   859       C         53.34300000  *  147.35100000  * -39.84600000  *
   860       H         53.03400000  *  146.49700000  * -39.23800000  *
   861       C         54.50500000  *  148.07700000  * -39.15700000  *
   862       H         54.94100000  *  148.81500000  * -39.83000000  *
   863       H         54.12400000  *  148.60600000  * -38.28400000  *
   864       C         55.58400000  *  147.11500000  * -38.68500000  *
   865       O         55.26200000  *  145.90900000  * -38.57600000  *
   866       O         56.73300000  *  147.55200000  * -38.41700000  *
   867       C         52.15000000  *  148.27900000  * -39.96300000  *
   868       O         51.20300000  *  148.18000000  * -39.18700000  *
   869       N         52.18300000  *  149.16200000  * -40.95500000  *
   870       H         53.01600000  *  149.23700000  * -41.51800000  *
   871       C         51.08600000  *  150.10000000  * -41.17300000  *
   872       H         50.93100000  *  150.67400000  * -40.25800000  *
   873       C         51.42800000  *  151.06800000  * -42.31500000  *
   874       H         51.45500000  *  150.53900000  * -43.26600000  *
   875       H         50.66000000  *  151.83800000  * -42.36800000  *
   876       H         52.39300000  *  151.53600000  * -42.12800000  *
   877       C         49.78900000  *  149.37000000  * -41.49900000  *
   878       O         48.71100000  *  149.83600000  * -41.15600000  *
   879       N         49.90500000  *  148.22900000  * -42.16400000  *
   880       H         50.83800000  *  147.88500000  * -42.38200000  *
   881       C         48.74000000  *  147.45400000  * -42.57500000  *
   882       H         47.85700000  *  148.08600000  * -42.62800000  *
   883       H         48.90600000  *  147.02300000  * -43.58600000  *
   884       H         48.52600000  *  146.61900000  * -41.88800000  *
   885       H         72.54500000  *  137.05800000  * -55.15200000  *
   886       C         72.38600000  *  137.90500000  * -54.47400000  *
   887       O         73.28300000  *  138.71900000  * -54.28600000  *
   888       N         71.20100000  *  138.01500000  * -53.89800000  *
   889       H         70.47300000  *  137.31400000  * -54.05700000  *
   890       C         70.96800000  *  139.10000000  * -52.94900000  *
   891       H         71.50000000  *  140.00600000  * -53.22900000  *
   892       C         69.47700000  *  139.40500000  * -52.82500000  *
   893       H         69.09300000  *  139.71900000  * -53.79200000  *
   894       H         68.93000000  *  138.50600000  * -52.53300000  *
   895       C         69.17800000  *  140.45400000  * -51.81200000  *
   896       N         69.23000000  *  140.42300000  * -50.45900000  *
   897       C         68.94700000  *  141.69100000  * -50.01400000  *
   898       H         68.96900000  *  142.01200000  * -48.98400000  *
   899       N         68.72400000  *  142.47200000  * -51.05500000  *
   900       H         68.47200000  *  143.44500000  * -51.00700000  *
   901       C         68.85400000  *  141.75000000  * -52.15500000  *
   902       H         68.77100000  *  142.12600000  * -53.16500000  *
   903       C         71.52100000  *  138.65700000  * -51.58300000  *
   904       O         72.28000000  *  139.38000000  * -50.94700000  *
   905       N         71.11400000  *  137.47100000  * -51.14500000  *
   906       H         70.37100000  *  137.01600000  * -51.66500000  *
   907       C         71.55500000  *  136.88000000  * -49.87700000  *
   908       H         71.18200000  *  135.84900000  * -49.87900000  *
   909       C         73.07600000  *  136.85300000  * -49.83700000  *
   910       H         73.53100000  *  137.83300000  * -49.86900000  *
   911       H         73.36600000  *  136.47900000  * -48.85100000  *
   912       C         73.64700000  *  135.85900000  * -50.81700000  *
   913       H         73.29800000  *  134.87100000  * -50.67200000  *
   914       H         73.21600000  *  136.10500000  * -51.78700000  *
   915       C         75.11700000  *  136.08400000  * -50.99900000  *
   916       H         75.61200000  *  135.95400000  * -50.03300000  *
   917       H         75.49500000  *  135.33200000  * -51.69500000  *
   918       N         75.35800000  *  137.42700000  * -51.50600000  *
   919       H         74.62100000  *  138.12700000  * -51.38200000  *
   920       C         76.54800000  *  137.85900000  * -51.89000000  *
   921       N         77.59300000  *  137.04400000  * -51.81500000  *
   922       H         77.44700000  *  136.21200000  * -51.26800000  *
   923       H         78.49900000  *  137.44300000  * -51.92100000  *
   924       N         76.69000000  *  139.09300000  * -52.35600000  *
   925       H         75.86000000  *  139.69200000  * -52.33800000  *
   926       H         77.56200000  *  139.47800000  * -52.67100000  *
   927       C         71.03700000  *  137.42400000  * -48.54200000  *
   928       O         71.18700000  *  136.76800000  * -47.50900000  *
   929       N         70.43700000  *  138.60400000  * -48.51600000  *
   930       H         70.32800000  *  139.16900000  * -49.34700000  *
   931       C         69.93700000  *  139.07600000  * -47.23100000  *
   932       H         69.76500000  *  138.24900000  * -46.54100000  *
   933       C         70.93500000  *  140.04200000  * -46.56200000  *
   934       H         71.90900000  *  139.56600000  * -46.50900000  *
   935       H         71.04400000  *  140.94300000  * -47.17900000  *
   936       C         70.51300000  *  140.42800000  * -45.14700000  *
   937       O         70.17200000  *  139.51500000  * -44.35500000  *
   938       O         70.51000000  *  141.64400000  * -44.82500000  *
   939       C         68.58700000  *  139.73400000  * -47.37800000  *
   940       O         68.35000000  *  140.81000000  * -46.83500000  *
   941       N         67.68700000  *  139.08300000  * -48.11000000  *
   942       H         67.94300000  *  138.20800000  * -48.54500000  *
   943       C         66.35900000  *  139.64900000  * -48.29900000  *
   944       H         66.47700000  *  140.66700000  * -48.65900000  *
   945       C         65.54600000  *  138.81300000  * -49.28800000  *
   946       H         65.58300000  *  137.78400000  * -48.94500000  *
   947       H         64.50600000  *  139.14000000  * -49.25500000  *
   948       C         66.02700000  *  138.85500000  * -50.73600000  *
   949       H         67.06400000  *  138.52800000  * -50.78200000  *
   950       C         65.17300000  *  137.91700000  * -51.58300000  *
   951       H         64.15900000  *  138.30500000  * -51.68800000  *
   952       H         65.63400000  *  137.80700000  * -52.55000000  *
   953       H         65.13400000  *  136.93500000  * -51.11000000  *
   954       C         65.92100000  *  140.27700000  * -51.26400000  *
   955       H         66.42000000  *  140.99600000  * -50.63300000  *
   956       H         66.44200000  *  140.27500000  * -52.20900000  *
   957       H         64.88200000  *  140.56100000  * -51.39700000  *
   958       C         65.59400000  *  139.73400000  * -46.98200000  *
   959       O         65.58600000  *  138.79200000  * -46.16600000  *
   960       N         64.95400000  *  140.85400000  * -46.74600000  *
   961       H         64.96400000  *  141.58600000  * -47.44400000  *
   962       C         64.16100000  *  141.05800000  * -45.55000000  *
   963       H         63.54900000  *  140.16700000  * -45.41500000  *
   964       C         65.03500000  *  141.21800000  * -44.28700000  *
   965       H         64.39800000  *  141.28100000  * -43.40500000  *
   966       H         65.63200000  *  140.31300000  * -44.16900000  *
   967       C         65.97300000  *  142.43100000  * -44.28800000  *
   968       H         66.38700000  *  142.57900000  * -45.28300000  *
   969       H         65.41900000  *  143.32100000  * -43.99300000  *
   970       C         67.12400000  *  142.16600000  * -43.31200000  *
   971       H         66.72200000  *  141.89300000  * -42.33400000  *
   972       H         67.70400000  *  141.32400000  * -43.70000000  *
   973       C         68.03300000  *  143.38800000  * -43.15800000  *
   974       H         68.13900000  *  143.88100000  * -44.13000000  *
   975       H         67.55300000  *  144.09700000  * -42.47300000  *
   976       N         69.36700000  *  142.97600000  * -42.64800000  *
   977       H         69.86000000  *  142.41400000  * -43.35700000  *
   978       H         69.93100000  *  143.78200000  * -42.41100000  *
   979       H         69.27200000  *  142.41400000  * -41.81200000  *
   980       C         63.26300000  *  142.22700000  * -45.84000000  *
   981       O         63.62300000  *  143.07000000  * -46.66100000  *
   982       N         62.11200000  *  142.30300000  * -45.18600000  *
   983       C         61.62600000  *  141.34600000  * -44.17100000  *
   984       H         62.10000000  *  141.53200000  * -43.20900000  *
   985       H         61.74500000  *  140.31100000  * -44.47600000  *
   986       C         60.16400000  *  141.66900000  * -44.09500000  *
   987       H         59.73700000  *  141.34900000  * -43.14300000  *
   988       H         59.63700000  *  141.20600000  * -44.93200000  *
   989       C         60.16000000  *  143.18900000  * -44.24800000  *
   990       H         60.51600000  *  143.64900000  * -43.32100000  *
   991       H         59.20200000  *  143.56500000  * -44.57400000  *
   992       C         61.14500000  *  143.38000000  * -45.40300000  *
   993       H         60.63400000  *  143.20500000  * -46.34500000  *
   994       C         61.77100000  *  144.77100000  * -45.44800000  *
   995       O         61.39200000  *  145.58400000  * -46.27300000  *
   996       N         62.72800000  *  145.08400000  * -44.55700000  *
   997       H         62.96900000  *  144.39000000  * -43.86500000  *
   998       C         63.45800000  *  146.37400000  * -44.52900000  *
   999       H         62.73700000  *  147.18600000  * -44.41900000  *
  1000       C         64.42900000  *  146.41800000  * -43.33600000  *
  1001       H         65.12200000  *  145.58100000  * -43.41500000  *
  1002       H         65.01500000  *  147.33700000  * -43.40200000  *
  1003       C         63.75800000  *  146.39800000  * -41.95500000  *
  1004       H         63.08300000  *  147.25100000  * -41.88100000  *
  1005       H         63.17800000  *  145.48400000  * -41.84000000  *
  1006       C         64.78500000  *  146.45600000  * -40.82100000  *
  1007       O         65.82000000  *  145.80400000  * -40.84700000  *
  1008       N         64.54200000  *  147.22000000  * -39.77900000  *
  1009       H         65.22800000  *  147.24800000  * -39.03800000  *
  1010       H         63.71700000  *  147.79900000  * -39.73800000  *
  1011       C         64.28400000  *  146.66500000  * -45.80100000  *
  1012       O         64.49000000  *  147.82000000  * -46.16400000  *
  1013       N         64.76000000  *  145.61800000  * -46.47700000  *
  1014       H         64.46800000  *  144.69900000  * -46.17800000  *
  1015       C         65.53500000  *  145.67900000  * -47.71700000  *
  1016       H         66.09800000  *  146.61200000  * -47.75400000  *
  1017       C         66.55100000  *  144.50700000  * -47.74300000  *
  1018       H         66.05100000  *  143.57900000  * -47.47900000  *
  1019       H         66.93200000  *  144.38500000  * -48.75500000  *
  1020       C         67.77200000  *  144.69900000  * -46.85100000  *
  1021       O         68.06100000  *  145.77700000  * -46.35900000  *
  1022       N         68.53900000  *  143.65900000  * -46.60200000  *
  1023       H         69.40600000  *  143.81200000  * -46.11400000  *
  1024       H         68.29900000  *  142.71100000  * -46.87600000  *
  1025       C         64.63200000  *  145.69400000  * -48.96800000  *
  1026       O         65.15500000  *  145.59900000  * -50.07600000  *
  1027       N         63.30000000  *  145.80300000  * -48.83400000  *
  1028       H         62.89500000  *  145.87300000  * -47.90900000  *
  1029       C         62.40600000  *  145.84500000  * -49.97900000  *
  1030       H         62.94700000  *  145.74800000  * -50.91900000  *
  1031       C         61.36900000  *  144.72100000  * -49.88900000  *
  1032       H         60.76900000  *  144.86100000  * -48.99200000  *
  1033       H         60.74400000  *  144.79800000  * -50.77200000  *
  1034       C         62.03600000  *  143.32400000  * -49.85900000  *
  1035       H         62.67100000  *  143.24000000  * -48.98800000  *
  1036       C         61.00200000  *  142.26000000  * -49.77100000  *
  1037       H         60.24600000  *  142.42800000  * -50.53400000  *
  1038       H         61.44700000  *  141.27100000  * -49.89000000  *
  1039       H         60.52000000  *  142.31900000  * -48.79800000  *
  1040       C         62.89500000  *  143.12600000  * -51.08400000  *
  1041       H         63.82900000  *  143.66800000  * -50.95600000  *
  1042       H         63.12900000  *  142.06900000  * -51.20900000  *
  1043       H         62.39300000  *  143.49200000  * -51.96600000  *
  1044       C         61.76300000  *  147.21800000  * -49.95200000  *
  1045       O         61.15000000  *  147.60200000  * -48.96600000  *
  1046       N         61.89400000  *  147.98400000  * -51.02700000  *
  1047       H         62.38600000  *  147.61300000  * -51.83500000  *
  1048       C         61.43600000  *  149.37200000  * -51.06300000  *
  1049       H         61.05900000  *  149.67700000  * -50.08900000  *
  1050       C         62.58800000  *  150.29500000  * -51.42900000  *
  1051       H         62.90700000  *  150.06800000  * -52.44800000  *
  1052       H         62.20800000  *  151.31400000  * -51.39700000  *
  1053       C         63.80100000  *  150.18800000  * -50.50500000  *
  1054       H         64.24500000  *  149.19900000  * -50.59000000  *
  1055       C         64.79600000  *  151.22600000  * -50.98300000  *
  1056       H         64.43500000  *  152.21400000  * -50.71600000  *
  1057       H         65.76000000  *  151.03200000  * -50.52600000  *
  1058       H         64.90900000  *  151.19300000  * -52.06100000  *
  1059       C         63.47300000  *  150.46300000  * -49.03900000  *
  1060       H         62.86600000  *  149.65000000  * -48.64700000  *
  1061       H         64.38700000  *  150.50700000  * -48.45400000  *
  1062       H         62.92900000  *  151.40200000  * -48.94000000  *
  1063       C         60.31100000  *  149.54700000  * -52.05900000  *
  1064       O         60.40000000  *  149.07600000  * -53.17900000  *
  1065       N         59.26800000  *  150.25600000  * -51.67700000  *
  1066       H         59.36500000  *  150.76300000  * -50.80000000  *
  1067       C         58.08300000  *  150.44700000  * -52.50800000  *
  1068       H         58.17300000  *  149.92400000  * -53.45700000  *
  1069       C         56.81900000  *  149.90600000  * -51.78600000  *
  1070       H         55.94300000  *  150.08700000  * -52.41500000  *
  1071       C         56.95000000  *  148.40400000  * -51.54300000  *
  1072       H         57.75300000  *  148.18300000  * -50.83300000  *
  1073       H         56.01300000  *  148.00400000  * -51.15200000  *
  1074       H         57.15800000  *  147.91500000  * -52.48900000  *
  1075       C         56.64700000  *  150.60600000  * -50.43300000  *
  1076       H         57.48200000  *  150.38000000  * -49.77500000  *
  1077       H         56.60500000  *  151.68300000  * -50.57600000  *
  1078       C         55.37000000  *  150.22200000  * -49.68600000  *
  1079       H         55.48900000  *  149.24800000  * -49.22200000  *
  1080       H         55.17000000  *  150.96500000  * -48.91000000  *
  1081       H         54.52900000  *  150.16800000  * -50.38500000  *
  1082       C         57.87200000  *  151.93000000  * -52.81700000  *
  1083       O         58.38200000  *  152.79400000  * -52.10000000  *
  1084       N         57.14900000  *  152.22000000  * -53.89700000  *
  1085       H         56.70500000  *  151.48200000  * -54.43300000  *
  1086       C         56.84100000  *  153.60200000  * -54.22700000  *
  1087       H         57.16800000  *  154.27800000  * -53.43100000  *
  1088       C         57.50400000  *  154.05300000  * -55.54100000  *
  1089       H         57.21800000  *  155.07000000  * -55.80500000  *
  1090       H         58.58200000  *  154.04400000  * -55.38800000  *
  1091       C         57.19300000  *  153.14600000  * -56.70100000  *
  1092       O         56.13500000  *  152.53500000  * -56.76400000  *
  1093       N         58.11500000  *  153.07200000  * -57.64100000  *
  1094       H         57.83300000  *  152.61700000  * -58.48600000  *
  1095       H         58.88600000  *  153.71500000  * -57.62100000  *
  1096       C         55.33100000  *  153.75800000  * -54.32100000  *
  1097       O         54.57600000  *  152.79900000  * -54.11400000  *
  1098       N         54.88500000  *  154.97100000  * -54.62100000  *
  1099       H         55.52100000  *  155.73600000  * -54.79200000  *
  1100       C         53.46400000  *  155.24700000  * -54.72300000  *
  1101       H         52.92700000  *  154.82600000  * -53.87200000  *
  1102       C         53.20900000  *  156.78000000  * -54.75500000  *
  1103       H         52.16900000  *  156.98000000  * -55.02600000  *
  1104       C         53.47800000  *  157.39700000  * -53.41000000  *
  1105       H         54.52100000  *  157.25500000  * -53.13000000  *
[...]
 1005  H   0.85539
 1006  C   1.06738   0.81638   0.74419   0.79605
 1007  O   1.88258   1.35968   1.52843   1.81592
 1008  N   1.52744   1.33011   1.47621   1.29879
 1009  H   0.66643
 1010  H   0.69458
 1011  C   1.08328   0.76787   0.79258   0.82055
 1012  O   1.88915   1.62042   1.28492   1.70768
 1013  N   1.55199   1.52476   1.20179   1.30440
 1014  H   0.67351
 1015  C   1.07057   0.94335   1.09458   0.81996
 1016  H   0.80291
 1017  C   1.07022   1.05555   1.09037   1.15933
 1018  H   0.83661
 1019  H   0.80640
 1020  C   1.06082   0.80960   0.77942   0.77347
 1021  O   1.88092   1.75338   1.37627   1.57993
 1022  N   1.53312   1.31633   1.19715   1.59817
 1023  H   0.66611
 1024  H   0.65935
 1025  C   1.09043   0.78482   0.71168   0.85295
 1026  O   1.87693   1.77119   1.62465   1.39160
 1027  N   1.54107   1.12668   1.65938   1.18412
 1028  H   0.64959
 1029  C   1.06942   0.96912   0.98279   0.97404
 1030  H   0.81511
 1031  C   1.06728   1.06560   0.99406   1.17577
 1032  H   0.83282
 1033  H   0.84885
 1034  C   1.04098   1.01074   0.95029   1.05999
 1035  H   0.85382
 1036  C   1.04882   1.12528   1.11271   1.17368
 1037  H   0.84845
 1038  H   0.85728
 1039  H   0.86083
 1040  C   1.05135   1.14423   1.16469   1.10176
 1041  H   0.84321
 1042  H   0.86462
 1043  H   0.85163
 1044  C   1.07591   0.75391   0.84268   0.75942
 1045  O   1.87364   1.52666   1.79166   1.43778
 1046  N   1.54557   1.55896   1.17399   1.24804
 1047  H   0.64932
 1048  C   1.06414   0.98566   0.82654   1.10481
 1049  H   0.80781
 1050  C   1.06365   1.02774   1.10728   1.12075
 1051  H   0.85115
 1052  H   0.84030
 1053  C   1.04783   0.96744   1.06434   0.97732
 1054  H   0.86861
 1055  C   1.05316   1.12545   1.13539   1.15699
 1056  H   0.84474
 1057  H   0.86032
 1058  H   0.86186
 1059  C   1.05460   1.18029   1.18117   1.03545
 1060  H   0.83513
 1061  H   0.85010
 1062  H   0.84535
 1063  C   1.07344   0.80025   0.74380   0.81483
 1064  O   1.86676   1.83483   1.63142   1.35069
 1065  N   1.54089   1.19244   1.46046   1.29802
 1066  H   0.64028
 1067  C   1.07630   0.89367   1.00440   1.04049
 1068  H   0.81422
 1069  C   1.06492   1.01311   0.99096   1.02347
 1070  H   0.84065
 1071  C   1.05436   1.18025   1.03683   1.17298
 1072  H   0.84454
 1073  H   0.84609
 1074  H   0.85585
 1075  C   1.05413   1.07464   1.11922   1.02963
 1076  H   0.84436
 1077  H   0.86135
 1078  C   1.05242   1.08479   1.16046   1.13145
 1079  H   0.84633
 1080  H   0.87527
 1081  H   0.84791
 1082  C   1.08675   0.74148   0.88833   0.74194
 1083  O   1.88704   1.56945   1.57679   1.55343
 1084  N   1.54349   1.50738   1.14289   1.34104
 1085  H   0.63930
 1086  C   1.06123   0.99371   0.88715   1.01625
 1087  H   0.80312
 1088  C   1.07090   1.17431   1.11167   1.04270
 1089  H   0.83146
 1090  H   0.81822
 1091  C   1.06793   0.77787   0.79222   0.82217
 1092  O   1.88774   1.30721   1.50603   1.80317
 1093  N   1.53713   1.31272   1.52246   1.27998
 1094  H   0.69303
 1095  H   0.69554
 1096  C   1.08065   0.88455   0.77684   0.74997
 1097  O   1.89435   1.62496   1.43517   1.52761
 1098  N   1.54109   1.14451   1.19537   1.69361
 1099  H   0.67735
 1100  C   1.08526   0.83367   1.03995   1.09521
 1101  H   0.80877
 1102  C   1.08454   0.98617   0.88347   0.88868
 1103  H   0.85781
 1104  C   1.05311   1.18572   1.17285   1.05451
 1105  H   0.83958
 1106  H   0.83185
 1107  H   0.83281
 1108  O   1.85130   1.58190   1.82113   1.32325
 1109  H   0.67517
 1110  C   1.07483   0.81037   0.77000   0.81944
 1111  O   1.88599   1.23151   1.61597   1.81381
 1112  N   1.53443   1.18232   1.58190   1.22151
 1113  H   0.69127
 1114  C   1.05382   1.13266   1.14005   0.88761
 1115  H   0.84108
 1116  H   0.87192
 1117  H   0.83518
 1118  H   0.86778
 1119  C   1.10017   0.76487   0.75359   0.92062
 1120  O   1.88719   1.66986   1.57169   1.45688
 1121  N   1.54655   1.44423   1.35131   1.20824
 1122  H   0.67428
 1123  C   1.08033   0.92915   1.08601   0.92407
 1124  H   0.80954
 1125  C   1.07313   1.07893   0.95429   0.98270
 1126  H   0.84441
 1127  C   1.05754   1.18808   1.08040   1.12365
 1128  H   0.83781
 1129  H   0.85388
 1130  H   0.85847
 1131  C   1.05398   1.07450   1.13505   1.01846
 1132  H   0.85594
 1133  H   0.85268
 1134  C   1.04892   1.14431   1.14762   1.09033
 1135  H   0.85586
 1136  H   0.85941
 1137  H   0.84923
 1138  C   1.07514   0.84260   0.74891   0.79208
 1139  O   1.88225   1.88206   1.48238   1.36313
 1140  N   1.54671   1.09788   1.54220   1.34285
 1141  H   0.63142
 1142  C   1.06851   0.85010   1.04232   1.03914
 1143  H   0.81384
 1144  C   1.05972   1.08881   1.05687   1.08961
 1145  H   0.83294
 1146  H   0.84620
 1147  C   1.05092   1.08861   1.03281   1.08357
 1148  H   0.85884
 1149  H   0.83983
 1150  C   1.06119   1.07576   1.05779   1.09689
 1151  H   0.82415
 1152  H   0.82619
 1153  C   1.08155   1.03061   0.99342   1.07583
 1154  H   0.83592
 1155  H   0.82751
 1156  N   1.46393   1.23136   1.24362   1.25636
 1157  H   0.66508
 1158  H   0.69528
 1159  H   0.73058
 1160  C   1.07958   0.77840   0.75111   0.82877
 1161  O   1.88196   1.76747   1.68873   1.28788
 1162  N   1.54484   1.33073   1.42928   1.22898
 1163  H   0.64229
 1164  C   1.06986   0.91865   0.95596   1.02984
 1165  H   0.83107
 1166  C   1.06261   1.09808   1.02038   1.13367
 1167  H   0.83454
 1168  H   0.84786
 1169  C   1.05388   1.07584   0.96024   0.95838
 1170  H   0.85434
 1171  C   1.06150   1.15500   1.13916   1.09669
 1172  H   0.86240
 1173  H   0.85280
 1174  H   0.84806
 1175  C   1.05712   1.17433   1.13645   1.09476
 1176  H   0.85043
 1177  H   0.85401
 1178  H   0.86036
 1179  C   1.08621   0.79169   0.79997   0.75809
 1180  O   1.88126   1.63244   1.59725   1.53644
 1181  N   1.54417   1.36888   1.43738   1.16191
 1182  H   0.64249
 1183  C   1.06665   0.91584   0.93029   1.04690
 1184  H   0.83206
 1185  C   1.05905   1.16076   1.07905   1.16126
 1186  H   0.81454
 1187  H   0.85343
 1188  H   0.82173
 1189  C   1.08903   0.78593   0.78685   0.74600
 1190  O   1.87353   1.84058   1.35776   1.57833
 1191  N   1.54788   1.17590   1.32701   1.49863
 1192  H   0.68735
 1193  C   1.07572   0.87138   1.07908   0.94065
 1194  H   0.82216
 1195  C   1.08009   1.14507   1.18857   0.99402
 1196  H   0.80910
 1197  H   0.82580
 1198  C   1.07120   0.73693   0.71457   0.70698
 1199  O   1.88715   1.80316   1.48562   1.53792
 1200  O   1.86991   1.66422   1.53328   1.81729
 1201  C   1.09090   0.81962   0.79624   0.74596
 1202  O   1.88741   1.27774   1.81093   1.56152
 1203  N   1.56754   1.29375   1.16873   1.54520
 1204  H   0.67872
 1205  C   1.07935   1.01602   0.91898   0.95408
 1206  H   0.84122
 1207  C   1.05582   1.08004   1.20347   0.95995
 1208  H   0.81460
 1209  H   0.81819
 1210  C   1.07378   0.97112   0.97765   0.97055
 1211  C   1.08857   1.03615   1.04202   1.01373
 1212  H   0.84244
 1213  C   1.08462   0.99233   1.05626   1.01758
 1214  H   0.85941
 1215  C   1.08691   1.05795   0.99237   1.02857
 1216  H   0.84960
 1217  C   1.08967   1.03702   1.03369   0.98382
 1218  H   0.83044
 1219  C   1.08703   0.98515   1.05959   1.01967
 1220  H   0.84199
 1221  C   1.09134   0.80364   0.77372   0.76178
 1222  O   1.88500   1.44643   1.56392   1.71395
 1223  N   1.53993   1.41490   1.43709   1.13656
 1224  H   0.68218
 1225  C   1.06929   0.98084   1.07326   0.98692
 1226  H   0.80607
 1227  H   0.80211
 1228  C   1.08092   0.82936   0.77300   0.69526
 1229  O   1.87553   1.84453   1.33218   1.62337
 1230  N   1.55826   1.29787   1.23640   1.44595
 1231  H   0.66967
 1232  C   1.07759   0.89938   1.03793   0.96492
 1233  H   0.84596
 1234  C   1.06836   1.11282   0.94582   1.17836
 1235  H   0.83337
 1236  H   0.83360
 1237  C   1.05198   1.03059   0.96203   1.01105
 1238  H   0.86124
 1239  C   1.05580   1.16930   1.06565   1.16208
 1240  H   0.85689
 1241  H   0.84179
 1242  H   0.85760
 1243  C   1.05578   1.17294   1.18966   1.04491
 1244  H   0.84430
 1245  H   0.83490
 1246  H   0.86028
 1247  C   1.09744   0.86696   0.77010   0.74307
 1248  O   1.88395   1.31044   1.77555   1.56619
 1249  N   1.58470   1.28171   1.24006   1.52970
 1250  H   0.66428
 1251  C   1.06985   0.96067   0.99058   0.96067
 1252  H   0.82532
 1253  C   1.05736   1.14288   1.09950   1.16306
 1254  H   0.86436
 1255  H   0.81988
 1256  H   0.81240
 1257  C   1.07842   0.84918   0.77024   0.78397
 1258  O   1.89132   1.45592   1.52679   1.62118
 1259  N   1.54614   1.31380   1.54422   1.15302
 1260  H   0.70181
 1261  C   1.06031   0.93039   1.14799   1.09024
 1262  H   0.81682
 1263  H   0.85530
 1264  H   0.84418
 1265  H   0.88485
 1266  C   1.09731   0.75863   0.82378   0.86998
 1267  O   1.89047   1.46977   1.31212   1.86342
 1268  N   1.54400   1.50195   1.35456   1.15138
 1269  H   0.69059
 1270  C   1.07227   1.10690   0.96352   0.82301
 1271  H   0.80369
 1272  C   1.05759   1.09489   1.03354   1.14028
 1273  H   0.84540
 1274  H   0.83336
 1275  C   1.06478   0.97651   0.94829   0.96797
 1276  C   1.08163   1.01289   0.99080   1.05625
 1277  H   0.84696
 1278  C   1.08052   1.03433   1.02448   0.99468
 1279  H   0.85474
 1280  C   1.07840   1.00776   1.05296   1.02453
 1281  H   0.86065
 1282  C   1.07794   1.02543   1.00605   1.05003
 1283  H   0.86379
 1284  C   1.08011   1.06153   1.02638   1.00062
 1285  H   0.84885
 1286  C   1.08296   0.77337   0.80317   0.81754
 1287  O   1.89076   1.50346   1.62917   1.48146
 1288  N   1.53922   1.18081   1.36151   1.44766
 1289  H   0.68154
 1290  C   1.05518   1.13050   0.97639   0.99579
 1291  H   0.83743
 1292  H   0.79712
 1293  C   1.07864   0.79201   0.76139   0.80366
 1294  O   1.88198   1.53495   1.37330   1.83955
 1295  N   1.53690   1.41233   1.37773   1.18571
 1296  H   0.67140
 1297  C   1.07318   1.00496   1.18177   0.89293
 1298  H   0.82215
 1299  H   0.81545
 1300  C   1.07940   0.79703   0.76101   0.81349
 1301  O   1.89027   1.46236   1.49033   1.68761
 1302  N   1.56499   1.46262   1.16772   1.27104
 1303  C   1.06811   1.06390   0.87563   1.05093
 1304  H   0.84678
 1305  H   0.85264
 1306  C   1.05738   1.03794   1.13823   1.06207
 1307  H   0.83754
 1308  H   0.80347
 1309  C   1.05938   1.09191   0.99441   1.15215
 1310  H   0.85775
 1311  H   0.83277
 1312  C   1.07064   1.04489   0.98621   0.88098
 1313  H   0.83323
 1314  C   1.09103   0.79136   0.79478   0.82260
 1315  O   1.89227   1.35909   1.36128   1.85861
 1316  N   1.54604   1.41348   1.50911   1.12667
 1317  H   0.68440
 1318  C   1.07865   1.04454   1.12162   0.88128
 1319  H   0.80266
 1320  H   0.82092
 1321  C   1.08604   0.82896   0.73305   0.78210
 1322  O   1.88605   1.69489   1.71536   1.32082
 1323  N   1.55281   1.23530   1.41523   1.34491
 1324  H   0.68956
 1325  C   1.07643   0.85783   1.06002   0.98288
 1326  H   0.82253
 1327  C   1.05904   1.17696   1.07698   0.96475
 1328  H   0.84764
 1329  H   0.82225
 1330  C   1.05758   1.11784   1.05748   1.05042
 1331  H   0.83359
 1332  H   0.87451
 1333  C   1.06928   1.10889   1.11900   0.74630
 1334  H   0.83604
 1335  H   0.80765
 1336  N   1.53392   1.59311   1.27317   1.10589
 1337  H   0.67029
 1338  C   0.97633   0.84036   0.80650   0.79176
 1339  N   1.49890   1.55647   1.25212   1.24774
 1340  H   0.64605
 1341  H   0.65710
 1342  N   1.50165   1.59026   1.35399   1.14264
 1343  H   0.66379
 1344  H   0.65915
 1345  C   1.08036   0.77744   0.78190   0.84601
 1346  O   1.89143   1.44916   1.63087   1.54519
 1347  N   1.54354   1.55347   1.19532   1.24341
 1348  H   0.68997
 1349  C   1.09128   1.00738   1.01010   0.90956
 1350  H   0.79914
 1351  C   1.08397   0.92080   0.92428   0.88310
 1352  H   0.85306
 1353  C   1.05831   1.10859   1.12698   1.19887
 1354  H   0.82670
 1355  H   0.82736
 1356  H   0.84086
 1357  O   1.84231   1.59465   1.64209   1.56366
 1358  H   0.60879
 1359  C   1.07974   0.81222   0.79621   0.76741
 1360  O   1.88790   1.53104   1.79376   1.36673
 1361  N   1.55442   1.33116   1.29537   1.37740
 1362  H   0.64851
 1363  C   1.07358   0.97558   0.92463   1.00748
 1364  H   0.83173
 1365  C   1.05678   1.09312   1.06723   1.08428
 1366  H   0.85285
 1367  H   0.83666
 1368  C   1.05816   0.96979   0.97362   1.07998
 1369  C   1.08209   0.97580   1.07658   1.00406
 1370  H   0.85089
 1371  C   1.08819   1.08607   0.99722   0.98773
 1372  H   0.79330
 1373  C   1.06868   0.83168   0.89512   0.87302
 1374  O   1.84083   1.46480   1.54505   1.69919
 1375  H   0.60420
 1376  C   1.07176   0.99531   1.09232   1.08087
 1377  H   0.85421
 1378  C   1.07698   1.05328   1.00350   1.02413
 1379  H   0.87626
 1380  C   1.08171   0.79334   0.75858   0.82346
 1381  O   1.88961   1.35941   1.51315   1.81040
 1382  N   1.55296   1.20443   1.61322   1.15019
 1383  H   0.65933
 1384  C   1.08613   1.09455   1.05575   0.83639
 1385  H   0.84991
 1386  C   1.08039   0.85334   0.86873   1.00769
 1387  H   0.87646
 1388  C   1.05616   1.09548   1.13744   1.18924
 1389  H   0.83270
 1390  H   0.85496
 1391  H   0.85273
 1392  O   1.84989   1.30850   1.76153   1.64767
 1393  H   0.59951
 1394  C   1.08832   0.86112   0.77066   0.80794
 1395  O   1.89636   1.23737   1.65256   1.60055
 1396  N   1.54728   1.20479   1.30473   1.51986
 1397  H   0.69400
 1398  C   1.06722   1.01866   1.01431   1.05317
 1399  H   0.88159
 1400  H   0.84479
 1401  C   1.06974   0.85192   0.75643   0.78805
 1402  O   1.89322   1.66768   1.37902   1.51029
 1403  N   1.55720   1.14802   1.53568   1.33799
 1404  H   0.68916
 1405  C   1.07200   0.82322   0.97401   1.14059
 1406  H   0.83276
 1407  C   1.05677   1.16626   1.00971   1.02759
 1408  H   0.84707
 1409  H   0.83108
 1410  C   1.06013   1.20453   0.98262   1.16279
 1411  H   0.83410
 1412  H   0.83473
 1413  C   1.06252   0.73940   0.72277   0.73366
 1414  O   1.89245   1.43235   1.79939   1.60791
 1415  O   1.88383   1.53367   1.58164   1.81716
 1416  C   1.09485   0.76524   0.86743   0.74699
 1417  O   1.88701   1.65368   1.65703   1.40268
 1418  N   1.54804   1.31574   1.19230   1.48985
 1419  H   0.67127
 1420  C   1.07026   1.04652   0.86928   1.02914
 1421  H   0.87147
 1422  C   1.05523   1.03116   1.04111   0.95611
 1423  H   0.82530
 1424  C   1.05491   1.16617   1.03658   1.20497
 1425  H   0.86092
 1426  H   0.84199
 1427  H   0.82117
 1428  C   1.05351   1.16801   1.15508   1.07883
 1429  H   0.85331
 1430  H   0.83982
 1431  H   0.87264
 1432  C   1.07379   0.79228   0.74872   0.84330
 1433  O   1.88967   1.32272   1.58748   1.74416
 1434  N   1.53877   1.27311   1.49288   1.21315
 1435  H   0.68156
 1436  C   1.07444   1.00933   1.04594   0.86601
 1437  H   0.84267
 1438  C   1.06137   1.03024   1.01670   0.98012
 1439  H   0.83864
 1440  C   1.05313   1.18240   1.10085   1.10933
 1441  H   0.83359
 1442  H   0.84902
 1443  H   0.86536
 1444  C   1.05651   1.19176   1.16285   1.04331
 1445  H   0.86028
 1446  H   0.83722
 1447  H   0.83033
 1448  C   1.08291   0.80953   0.79868   0.76222
 1449  O   1.88748   1.79484   1.44264   1.43269
 1450  N   1.53612   1.24351   1.43832   1.31514
 1451  H   0.68512
 1452  C   1.07801   0.90301   0.96842   1.14054
 1453  H   0.81632
 1454  C   1.07871   0.93222   0.84203   0.98910
 1455  H   0.87345
 1456  C   1.05580   1.09965   1.13380   1.18170
 1457  H   0.84029
 1458  H   0.82863
 1459  H   0.84521
 1460  O   1.85201   1.45322   1.47114   1.77177
 1461  H   0.66544
 1462  C   1.07519   0.76603   0.82442   0.81392
 1463  O   1.88678   1.45216   1.86773   1.32171
 1464  N   1.53704   1.58457   1.12344   1.28791
 1465  H   0.68736
 1466  C   1.05225   1.16023   0.87598   1.13283
 1467  H   0.82171
 1468  H   0.85352
 1469  H   0.86622
 1470  H   0.86965
 1471  C   1.10167   0.76420   0.81178   0.89546
 1472  O   1.88719   1.42754   1.33466   1.87144
 1473  N   1.55040   1.52607   1.36323   1.14177
 1474  H   0.68725
 1475  C   1.07792   1.09047   1.02970   0.79360
 1476  H   0.81271
 1477  C   1.05937   1.13175   1.00670   1.09916
 1478  H   0.81536
 1479  H   0.82644
 1480  C   1.06836   0.97630   0.98725   0.99778
 1481  C   1.08108   0.99046   1.01956   1.00397
 1482  H   0.84544
 1483  C   1.07574   1.10242   1.04741   1.06475
 1484  H   0.82522
 1485  C   1.07247   0.88865   0.88828   0.88314
 1486  O   1.84175   1.33097   1.60095   1.72845
 1487  H   0.65397
 1488  C   1.07526   0.98861   1.10183   1.09838
 1489  H   0.83470
 1490  C   1.08716   1.07418   0.98136   0.97208
 1491  H   0.84076
 1492  C   1.08200   0.80328   0.78090   0.81052
 1493  O   1.89299   1.77873   1.64258   1.23660
 1494  N   1.53512   1.26487   1.54071   1.17724
 1495  H   0.69025
 1496  C   1.05806   0.92148   1.08516   1.15573
 1497  H   0.83207
 1498  H   0.85596
 1499  H   0.85025
 1500  H   0.86596
 1501  C   1.10297   0.82980   0.87808   0.75944
 1502  O   1.89043   1.34352   1.83484   1.42344
 1503  N   1.55422   1.37693   1.20572   1.47144
 1504  H   0.69153
 1505  C   1.07914   0.97658   0.84380   1.12476
 1506  H   0.81513
 1507  C   1.05897   0.98042   1.00850   1.06732
 1508  H   0.86932
 1509  C   1.05192   1.15811   1.05407   1.18179
 1510  H   0.83710
 1511  H   0.85312
 1512  H   0.83584
 1513  C   1.04805   1.00406   1.12233   1.09028
 1514  H   0.86275
 1515  H   0.86412
 1516  C   1.04891   1.11929   1.13509   1.13910
 1517  H   0.85392
 1518  H   0.85506
 1519  H   0.85414
 1520  C   1.07240   0.86792   0.76274   0.76284
 1521  O   1.88565   1.52996   1.48958   1.60563
 1522  N   1.54257   1.16439   1.44798   1.40499
 1523  H   0.70095
 1524  C   1.06816   0.88836   1.14590   1.09858
 1525  H   0.85015
 1526  H   0.86150
 1527  H   0.82831
 1528  H   0.86166
 1529  C   1.10306   0.85219   0.75668   0.84831
 1530  O   1.89242   1.78021   1.57454   1.31039
 1531  N   1.53870   1.27076   1.41801   1.30159
 1532  H   0.68208
 1533  C   1.05776   0.87971   1.04727   1.01925
 1534  H   0.82170
 1535  C   1.06046   1.03605   1.11717   1.10597
 1536  H   0.84142
 1537  H   0.84438
 1538  C   1.04471   0.99072   0.96539   1.05974
 1539  H   0.87935
 1540  C   1.05434   1.16081   1.06600   1.18147
 1541  H   0.84389
 1542  H   0.84595
 1543  H   0.85061
 1544  C   1.05255   1.12473   1.16979   1.10983
 1545  H   0.85985
 1546  H   0.84658
 1547  H   0.84047
 1548  C   1.08006   0.74548   0.87750   0.77785
 1549  O   1.88738   1.52414   1.42226   1.71294
 1550  N   1.54028   1.59601   1.20274   1.20221
 1551  H   0.67685
 1552  C   1.06918   1.04559   0.93886   0.93154
 1553  H   0.81957
 1554  C   1.05602   1.16672   1.05744   1.01494
 1555  H   0.83573
 1556  H   0.83259
 1557  C   1.05726   1.12840   1.10535   1.02208
 1558  H   0.83983
 1559  H   0.82520
 1560  C   1.06738   1.16589   0.93385   0.90769
 1561  H   0.82019
 1562  H   0.83900
 1563  N   1.52348   1.14354   1.42304   1.39799
 1564  H   0.66753
 1565  C   0.99025   0.79775   0.80739   0.81353
 1566  N   1.51442   1.10597   1.46153   1.48358
 1567  H   0.64451
 1568  H   0.65950
 1569  N   1.50487   1.23287   1.41695   1.42971
 1570  H   0.66038
 1571  H   0.65744
 1572  C   1.07517   0.86243   0.78999   0.77491
 1573  O   1.88880   1.59470   1.59581   1.52396
 1574  N   1.53732   1.18906   1.25264   1.49242
 1575  H   0.67788
 1576  C   1.08129   0.82465   1.13605   1.04088
 1577  H   0.82564
 1578  C   1.05995   1.15903   1.08167   1.00043
 1579  H   0.84412
 1580  H   0.84906
 1581  C   1.04874   1.08014   0.97268   0.94566
 1582  H   0.87037
 1583  C   1.05526   1.15774   1.15743   1.09220
 1584  H   0.86953
 1585  H   0.86660
 1586  H   0.85334
 1587  C   1.05662   1.16273   1.09184   1.15427
 1588  H   0.84547
 1589  H   0.86998
 1590  H   0.84291
 1591  C   1.07443   0.75917   0.76267   0.73177
 1592  O   1.88873   1.43233   1.84370   1.57882
 1593  O   1.89200   1.52731   1.54869   1.77918

 **********************
 *                    *
 * JOB ENDED NORMALLY *
 *                    *
 **********************



 TOTAL JOB TIME:          2306.27 SECONDS

 == MOPAC DONE ==
