 *******************************************************************************
 **                                                                           **
 **                              MOPAC v23.2.2                                **
 **                                                                           **
 *******************************************************************************
 **          Digital Object Identifier (DOI): 10.5281/zenodo.6511958          **
 **    Visit the DOI location for information on how to cite this program.    **
 *******************************************************************************

                              PM7 CALCULATION RESULTS

 *******************************************************************************
 *  CALCULATION DONE: (MAX THREADS = 24)             Thu Jan 22 13:28:01 2026  *
 *  PM7        - The PM7 Hamiltonian to be used
 *
 *
 *
 *                 CHARGE ON SYSTEM = +2
 *
 *
 *
 *  EPS=1      - USE ANDREAS KLAMT'S COSMO IMPLICIT SOLVATION MODEL
 *  XYZ        - CARTESIAN COORDINATE SYSTEM TO BE USED
 *  1SCF       - DO 1 SCF AND THEN STOP 
 *  T=         - A TIME OF 172800.0 SECONDS REQUESTED
 *  DUMP=N     - RESTART FILE WRITTEN EVERY 7200.0 SECONDS REQUESTED
 *******************************************************************************
PM7 1SCF XYZ CHARGE=2 EPS=1


   ATOM   CHEMICAL          X               Y               Z
  NUMBER   SYMBOL      (ANGSTROMS)     (ANGSTROMS)     (ANGSTROMS)

     1       H         71.69100000  *  165.23700000  * -45.36000000  *
     2       C         70.72700000  *  165.64400000  * -45.02500000  *
     3       O         70.67100000  *  166.69300000  * -44.40000000  *
     4       N         69.64800000  *  164.94600000  * -45.35400000  *
     5       H         69.74300000  *  164.08600000  * -45.86500000  *
     6       C         68.31800000  *  165.37700000  * -44.95100000  *
     7       H         68.30400000  *  166.44500000  * -44.75000000  *
     8       C         67.27900000  *  165.08100000  * -46.05800000  *
     9       H         67.27200000  *  164.02200000  * -46.29800000  *
    10       C         65.89200000  *  165.46600000  * -45.59200000  *
    11       H         65.46400000  *  166.22900000  * -46.24500000  *
    12       H         65.23700000  *  164.60600000  * -45.62700000  *
    13       H         65.87600000  *  165.89500000  * -44.58400000  *
    14       C         67.63700000  *  165.85600000  * -47.31700000  *
    15       H         68.59400000  *  165.52900000  * -47.70800000  *
    16       H         66.87900000  *  165.66900000  * -48.07700000  *
    17       H         67.68800000  *  166.92100000  * -47.10100000  *
    18       C         67.91500000  *  164.66400000  * -43.65700000  *
    19       O         67.55300000  *  165.30600000  * -42.67600000  *
    20       N         67.98400000  *  163.33800000  * -43.65800000  *
    21       H         68.28400000  *  162.85200000  * -44.48600000  *
    22       C         67.62300000  *  162.54400000  * -42.48700000  *
    23       H         67.90600000  *  163.07600000  * -41.58100000  *
    24       C         66.12800000  *  162.23500000  * -42.45900000  *
    25       H         65.92600000  *  161.47400000  * -43.20900000  *
    26       H         65.88500000  *  161.80700000  * -41.48800000  *
    27       C         65.21300000  *  163.39800000  * -42.74000000  *
    28       H         65.33100000  *  164.15700000  * -41.96400000  *
    29       H         65.45900000  *  163.81400000  * -43.69700000  *
    30       C         63.76600000  *  162.97200000  * -42.82400000  *
    31       O         63.44700000  *  162.11400000  * -43.67900000  *
    32       O         62.94800000  *  163.49400000  * -42.03400000  *
    33       C         68.34700000  *  161.22200000  * -42.57700000  *
    34       O         68.73000000  *  160.78800000  * -43.66100000  *
    35       N         68.52400000  *  160.57500000  * -41.43500000  *
    36       H         68.03000000  *  160.89100000  * -40.60600000  *
    37       C         69.17300000  *  159.28200000  * -41.42100000  *
    38       H         69.95100000  *  159.22100000  * -42.17800000  *
    39       C         69.75600000  *  159.01000000  * -40.03200000  *
    40       H         70.21900000  *  159.94300000  * -39.71800000  *
    41       H         68.96300000  *  158.79100000  * -39.31600000  *
    42       C         70.79800000  *  157.89600000  * -39.98300000  *
    43       H         70.31100000  *  156.94100000  * -40.17400000  *
    44       H         71.53800000  *  158.07300000  * -40.76900000  *
    45       C         71.50100000  *  157.83200000  * -38.61800000  *
    46       H         70.74900000  *  157.59000000  * -37.86000000  *
    47       H         72.23100000  *  157.01800000  * -38.63800000  *
    48       C         72.18600000  *  159.16200000  * -38.26900000  *
    49       H         72.83200000  *  159.42500000  * -39.10900000  *
    50       H         71.41200000  *  159.93100000  * -38.15600000  *
    51       N         73.00000000  *  159.10500000  * -37.02500000  *
    52       H         73.70000000  *  158.37000000  * -37.07400000  *
    53       H         73.43800000  *  159.98800000  * -36.79300000  *
    54       H         72.39100000  *  158.85400000  * -36.25100000  *
    55       C         68.06200000  *  158.28700000  * -41.74800000  *
    56       O         67.16300000  *  158.08100000  * -40.94600000  *
    57       N         68.05200000  *  157.71000000  * -42.95400000  *
    58       H         68.86100000  *  157.84800000  * -43.54000000  *
    59       C         67.02800000  *  156.73400000  * -43.39200000  *
    60       H         66.05700000  *  157.23300000  * -43.40100000  *
    61       C         67.31400000  *  156.21900000  * -44.82500000  *
    62       H         68.38900000  *  156.09700000  * -44.94400000  *
    63       C         66.65000000  *  154.86600000  * -45.12900000  *
    64       H         65.57600000  *  154.92900000  * -44.95100000  *
    65       H         66.82300000  *  154.59600000  * -46.16300000  *
    66       H         67.07700000  *  154.06900000  * -44.52100000  *
    67       C         66.82000000  *  157.26300000  * -45.83900000  *
    68       H         65.72800000  *  157.27100000  * -45.85500000  *
    69       H         67.15100000  *  158.23400000  * -45.48900000  *
    70       C         67.34200000  *  157.05800000  * -47.26900000  *
    71       H         66.91700000  *  156.16000000  * -47.71200000  *
    72       H         67.05600000  *  157.90800000  * -47.88500000  *
    73       H         68.42700000  *  156.97800000  * -47.26500000  *
    74       C         66.90100000  *  155.57300000  * -42.40500000  *
    75       O         65.79700000  *  155.22700000  * -41.98100000  *
    76       N         68.03200000  *  154.95400000  * -42.07200000  *
    77       H         68.91200000  *  155.30200000  * -42.43600000  *
    78       C         68.04900000  *  153.70500000  * -41.32900000  *
    79       H         67.42800000  *  153.80800000  * -40.43800000  *
    80       H         67.63500000  *  152.91000000  * -41.95000000  *
    81       C         69.45000000  *  153.29400000  * -40.90700000  *
    82       O         70.45100000  *  153.60300000  * -41.55900000  *
    83       N         69.49900000  *  152.56600000  * -39.80100000  *
    84       H         68.62900000  *  152.34800000  * -39.33400000  *
    85       C         70.70900000  *  151.94100000  * -39.28900000  *
    86       H         71.55100000  *  152.60500000  * -39.48000000  *
    87       C         70.56600000  *  151.76200000  * -37.76900000  *
    88       H         69.70000000  *  151.13600000  * -37.55400000  *
    89       H         71.46200000  *  151.27600000  * -37.40300000  *
    90       C         70.43700000  *  153.10700000  * -37.03100000  *
    91       H         71.31000000  *  153.71800000  * -37.27400000  *
    92       H         69.55100000  *  153.63700000  * -37.38700000  *
    93       C         70.32600000  *  152.93600000  * -35.50700000  *
    94       O         69.45400000  *  152.17300000  * -35.03200000  *
    95       O         71.08400000  *  153.60600000  * -34.76700000  *
    96       C         70.94200000  *  150.62600000  * -40.05800000  *
    97       O         70.19400000  *  149.65900000  * -39.89700000  *
    98       N         71.88700000  *  150.64200000  * -41.00500000  *
    99       H         72.51300000  *  151.43600000  * -41.05500000  *
   100       C         71.95000000  *  149.68000000  * -42.11200000  *
   101       H         70.93500000  *  149.42800000  * -42.42300000  *
   102       H         72.43500000  *  150.17200000  * -42.95500000  *
   103       C         72.69900000  *  148.37000000  * -41.83500000  *
   104       O         73.12100000  *  148.06700000  * -40.72000000  *
   105       N         72.88900000  *  147.58500000  * -42.89800000  *
   106       H         72.48000000  *  147.86200000  * -43.78100000  *
   107       C         73.64000000  *  146.31200000  * -42.89800000  *
   108       H         73.33300000  *  145.72000000  * -42.03500000  *
   109       C         73.33200000  *  145.50100000  * -44.16700000  *
   110       H         74.06600000  *  144.70300000  * -44.28400000  *
   111       C         71.94600000  *  144.87500000  * -44.07300000  *
   112       H         71.18000000  *  145.65100000  * -44.03200000  *
   113       H         71.77900000  *  144.23700000  * -44.94000000  *
   114       H         71.90600000  *  144.25600000  * -43.17900000  *
   115       O         73.37500000  *  146.34600000  * -45.29200000  *
   116       H         73.01000000  *  145.83500000  * -46.05100000  *
   117       C         75.15400000  *  146.47700000  * -42.79600000  *
   118       O         75.78500000  *  145.69300000  * -42.09600000  *
   119       N         75.72700000  *  147.48700000  * -43.46300000  *
   120       H         75.11700000  *  148.02100000  * -44.06100000  *
   121       C         77.18300000  *  147.69900000  * -43.59600000  *
   122       H         77.70300000  *  147.09200000  * -42.85400000  *
   123       C         77.63500000  *  147.22600000  * -44.99100000  *
   124       H         77.21500000  *  147.89400000  * -45.74300000  *
   125       H         78.72200000  *  147.30300000  * -45.05700000  *
   126       C         77.26200000  *  145.79600000  * -45.32900000  *
   127       C         77.69600000  *  144.75400000  * -44.49000000  *
   128       H         78.28800000  *  144.97100000  * -43.61000000  *
   129       C         77.35100000  *  143.42600000  * -44.78600000  *
   130       H         77.67300000  *  142.63500000  * -44.13000000  *
   131       C         76.59400000  *  143.12800000  * -45.93700000  *
   132       O         76.34300000  *  141.83200000  * -46.25400000  *
   133       H         77.00900000  *  141.26900000  * -45.82900000  *
   134       C         76.13900000  *  144.17300000  * -46.76700000  *
   135       H         75.53300000  *  143.95200000  * -47.63100000  *
   136       C         76.47800000  *  145.50500000  * -46.46400000  *
   137       H         76.13600000  *  146.30400000  * -47.10600000  *
   138       C         77.63400000  *  149.15000000  * -43.34500000  *
   139       O         78.74000000  *  149.53700000  * -43.72200000  *
   140       N         76.77800000  *  149.96600000  * -42.72500000  *
   141       H         75.90100000  *  149.59000000  * -42.39500000  *
   142       C         77.01500000  *  151.38700000  * -42.47400000  *
   143       H         77.60900000  *  151.50700000  * -41.57000000  *
   144       H         77.57800000  *  151.80200000  * -43.30000000  *
   145       C         75.70800000  *  152.16600000  * -42.30900000  *
   146       O         74.65900000  *  151.56500000  * -42.05900000  *
   147       N         75.75500000  *  153.49500000  * -42.44900000  *
   148       H         76.58800000  *  153.89400000  * -42.85900000  *
   149       C         74.59200000  *  154.32600000  * -42.21200000  *
   150       H         73.82600000  *  153.78000000  * -41.65800000  *
   151       C         74.95900000  *  155.54800000  * -41.37000000  *
   152       H         75.70700000  *  156.13900000  * -41.89300000  *
   153       C         73.73100000  *  156.40900000  * -41.13300000  *
   154       H         72.94300000  *  155.80300000  * -40.68200000  *
   155       H         73.98600000  *  157.21200000  * -40.45000000  *
   156       H         73.36800000  *  156.84900000  * -42.06500000  *
   157       C         75.54500000  *  155.09600000  * -40.05300000  *
   158       H         76.46000000  *  154.52800000  * -40.19800000  *
   159       H         75.77700000  *  155.95300000  * -39.42300000  *
   160       H         74.80500000  *  154.48400000  * -39.53200000  *
   161       C         74.01900000  *  154.79200000  * -43.53700000  *
   162       O         74.76100000  *  155.18400000  * -44.43700000  *
   163       N         72.69800000  *  154.64800000  * -43.67500000  *
   164       H         72.17100000  *  154.30000000  * -42.88100000  *
   165       C         71.91300000  *  155.09400000  * -44.83200000  *
   166       H         72.56900000  *  155.14900000  * -45.69900000  *
   167       C         70.75900000  *  154.11800000  * -45.16000000  *
   168       H         69.92000000  *  154.31600000  * -44.49500000  *
   169       C         70.29300000  *  154.33800000  * -46.60500000  *
   170       H         71.09300000  *  154.09000000  * -47.30200000  *
   171       H         69.43000000  *  153.70500000  * -46.81400000  *
   172       H         70.00600000  *  155.37700000  * -46.75600000  *
   173       C         71.11900000  *  152.63700000  * -44.98700000  *
   174       H         71.30200000  *  152.41600000  * -43.93600000  *
   175       H         70.28200000  *  152.01900000  * -45.31400000  *
   176       H         72.00400000  *  152.38900000  * -45.56700000  *
   177       C         71.34900000  *  156.48400000  * -44.54100000  *
   178       O         70.61800000  *  156.63700000  * -43.55900000  *
   179       N         71.62500000  *  157.49000000  * -45.37400000  *
   180       H         72.23900000  *  157.32200000  * -46.16900000  *
   181       C         71.01800000  *  158.79600000  * -45.21900000  *
   182       H         70.37900000  *  158.84300000  * -44.33800000  *
   183       C         72.10000000  *  159.86100000  * -45.06900000  *
   184       H         72.79900000  *  159.78100000  * -45.90500000  *
   185       H         71.63400000  *  160.84400000  * -45.14300000  *
   186       C         72.87100000  *  159.84300000  * -43.76800000  *
   187       C         72.34700000  *  160.43100000  * -42.61900000  *
   188       H         71.37700000  *  160.90600000  * -42.66800000  *
   189       C         73.06400000  *  160.45200000  * -41.42500000  *
   190       H         72.63300000  *  160.94600000  * -40.56800000  *
   191       C         74.33000000  *  159.87400000  * -41.37100000  *
   192       O         75.04700000  *  159.90100000  * -40.18700000  *
   193       H         74.69700000  *  160.54100000  * -39.56800000  *
   194       C         74.87500000  *  159.27800000  * -42.50300000  *
   195       H         75.78500000  *  158.71900000  * -42.41900000  *
   196       C         74.14000000  *  159.26700000  * -43.69600000  *
   197       H         74.51800000  *  158.73300000  * -44.56500000  *
   198       C         70.16700000  *  159.17400000  * -46.42900000  *
   199       O         70.41800000  *  158.72400000  * -47.55600000  *
   200       N         69.03200000  *  159.83700000  * -46.21300000  *
   201       H         68.84500000  *  160.14400000  * -45.26500000  *
   202       C         68.29400000  *  160.51200000  * -47.28100000  *
   203       H         68.28600000  *  159.91000000  * -48.19200000  *
   204       C         66.85000000  *  160.83500000  * -46.84700000  *
   205       H         66.33500000  *  159.91500000  * -46.58500000  *
   206       H         66.86600000  *  161.47700000  * -45.96400000  *
   207       C         66.03900000  *  161.51700000  * -47.96000000  *
   208       H         66.51000000  *  162.46100000  * -48.23800000  *
   209       H         66.01500000  *  160.86500000  * -48.83400000  *
   210       C         64.60200000  *  161.79200000  * -47.48700000  *
   211       H         64.14900000  *  160.85900000  * -47.14700000  *
   212       H         64.63100000  *  162.49200000  * -46.65100000  *
   213       C         63.75900000  *  162.37900000  * -48.62700000  *
   214       H         64.27300000  *  163.25900000  * -49.02700000  *
   215       H         63.69200000  *  161.63300000  * -49.42600000  *
   216       N         62.39600000  *  162.75900000  * -48.16700000  *
   217       H         62.43400000  *  163.47100000  * -47.45100000  *
   218       H         61.84400000  *  163.13300000  * -48.92700000  *
   219       H         61.89700000  *  161.96800000  * -47.78600000  *
   220       C         69.09900000  *  161.76800000  * -47.51000000  *
   221       O         69.32800000  *  162.50300000  * -46.55300000  *
   222       N         69.55500000  *  162.00600000  * -48.72500000  *
   223       H         69.34400000  *  161.34200000  * -49.46700000  *
   224       C         70.34900000  *  163.18200000  * -49.01700000  *
   225       H         70.22500000  *  163.93500000  * -48.24000000  *
   226       C         71.81400000  *  162.79200000  * -49.07000000  *
   227       H         71.97800000  *  162.06700000  * -49.86400000  *
   228       H         72.42900000  *  163.67700000  * -49.23900000  *
   229       H         72.10500000  *  162.33200000  * -48.12600000  *
   230       C         69.94400000  *  163.83800000  * -50.32200000  *
   231       O         69.22100000  *  163.25100000  * -51.12800000  *
   232       N         70.40700000  *  165.06400000  * -50.52400000  *
   233       H         70.93200000  *  165.53000000  * -49.79600000  *
   234       C         70.10800000  *  165.77900000  * -51.74600000  *
   235       H         69.54100000  *  165.15900000  * -52.44400000  *
   236       H         69.52200000  *  166.69100000  * -51.53000000  *
   237       H         71.05900000  *  166.04700000  * -52.23900000  *
   238       H         68.08600000  *  164.80700000  * -56.55000000  *
   239       C         68.21200000  *  164.39600000  * -55.53600000  *
   240       O         69.28600000  *  164.50800000  * -54.94200000  *
   241       N         67.13500000  *  163.82300000  * -55.01100000  *
   242       H         66.34000000  *  163.66800000  * -55.61500000  *
   243       C         67.13600000  *  163.21200000  * -53.68800000  *
   244       H         67.86300000  *  163.70700000  * -53.05000000  *
   245       C         65.75500000  *  163.32300000  * -53.02900000  *
   246       H         64.97700000  *  163.06900000  * -53.75000000  *
   247       C         65.64800000  *  162.36600000  * -51.85200000  *
   248       H         66.47200000  *  162.51800000  * -51.15200000  *
   249       H         64.69700000  *  162.53800000  * -51.34700000  *
   250       H         65.65200000  *  161.33900000  * -52.20000000  *
   251       C         65.54000000  *  164.75000000  * -52.56600000  *
   252       H         65.62600000  *  165.42400000  * -53.41600000  *
   253       H         64.53500000  *  164.85100000  * -52.15900000  *
   254       H         66.28400000  *  165.00300000  * -51.81000000  *
   255       C         67.52600000  *  161.76000000  * -53.84700000  *
   256       O         66.97900000  *  161.02800000  * -54.68200000  *
   257       N         68.49600000  *  161.34900000  * -53.04800000  *
   258       H         68.91100000  *  161.99700000  * -52.39100000  *
   259       C         69.01100000  *  159.99200000  * -53.10200000  *
   260       H         68.34600000  *  159.34100000  * -53.67900000  *
   261       C         70.37400000  *  159.97400000  * -53.81600000  *
   262       H         70.77500000  *  158.96500000  * -53.87500000  *
   263       C         70.21400000  *  160.50700000  * -55.21300000  *
   264       H         69.95700000  *  161.56600000  * -55.19000000  *
   265       H         71.15100000  *  160.39100000  * -55.75600000  *
   266       H         69.44200000  *  159.95000000  * -55.73600000  *
   267       C         71.37900000  *  160.85000000  * -53.05700000  *
   268       H         71.56500000  *  160.44500000  * -52.06400000  *
   269       H         72.31500000  *  160.84900000  * -53.61300000  *
   270       H         71.03600000  *  161.88400000  * -52.98400000  *
   271       C         69.19200000  *  159.37200000  * -51.72900000  *
   272       O         69.02000000  *  160.03600000  * -50.68600000  *
   273       N         69.38400000  *  158.05900000  * -51.70300000  *
   274       H         69.46300000  *  157.56500000  * -52.58800000  *
   275       C         69.76100000  *  157.32500000  * -50.51100000  *
   276       H         69.48100000  *  157.88800000  * -49.62300000  *
   277       C         69.00700000  *  156.00500000  * -50.47600000  *
   278       H         69.24800000  *  155.43000000  * -51.36700000  *
   279       H         69.29100000  *  155.43700000  * -49.58800000  *
   280       H         67.93700000  *  156.20600000  * -50.44500000  *
   281       C         71.27700000  *  157.14100000  * -50.53700000  *
   282       O         71.81100000  *  156.46000000  * -51.41900000  *
   283       N         71.97000000  *  157.79100000  * -49.60300000  *
   284       H         71.44500000  *  158.28300000  * -48.88900000  *
   285       C         73.41300000  *  157.73400000  * -49.53500000  *
   286       H         73.80300000  *  157.43200000  * -50.50200000  *
   287       C         73.96100000  *  159.11400000  * -49.18200000  *
   288       H         73.49200000  *  159.84000000  * -49.85100000  *
   289       H         73.62800000  *  159.35800000  * -48.16900000  *
   290       C         75.47300000  *  159.31600000  * -49.26600000  *
   291       H         75.96900000  *  158.63700000  * -48.57100000  *
   292       C         75.94900000  *  159.02000000  * -50.68400000  *
   293       H         75.44100000  *  159.71800000  * -51.34800000  *
   294       H         77.02400000  *  159.18800000  * -50.76300000  *
   295       H         75.74700000  *  157.98700000  * -50.96800000  *
   296       C         75.80400000  *  160.74000000  * -48.87900000  *
   297       H         75.43700000  *  160.94600000  * -47.87600000  *
   298       H         76.88200000  *  160.87900000  * -48.92200000  *
   299       H         75.32000000  *  161.42900000  * -49.57600000  *
   300       C         73.82100000  *  156.71600000  * -48.48500000  *
   301       O         73.39600000  *  156.78100000  * -47.33400000  *
   302       N         74.66900000  *  155.77100000  * -48.87800000  *
   303       H         74.91900000  *  155.74900000  * -49.86400000  *
   304       C         75.12300000  *  154.65200000  * -48.04800000  *
   305       H         74.60500000  *  154.66500000  * -47.08700000  *
   306       C         74.76500000  *  153.35600000  * -48.80700000  *
   307       H         74.09700000  *  153.59500000  * -49.63900000  *
   308       H         75.66100000  *  152.91800000  * -49.24100000  *
   309       C         74.04900000  *  152.28900000  * -47.97800000  *
   310       H         73.26200000  *  152.75300000  * -47.38700000  *
   311       H         73.57600000  *  151.61000000  * -48.68700000  *
   312       C         75.01200000  *  151.50400000  * -47.07100000  *
   313       H         75.94400000  *  151.32500000  * -47.60400000  *
   314       H         75.24100000  *  152.11100000  * -46.19100000  *
   315       C         74.43100000  *  150.15100000  * -46.62400000  *
   316       H         75.12300000  *  149.70200000  * -45.90500000  *
   317       H         73.49000000  *  150.34300000  * -46.09700000  *
   318       N         74.21000000  *  149.22200000  * -47.77400000  *
   319       H         75.07500000  *  148.94700000  * -48.22500000  *
   320       H         73.71500000  *  148.35800000  * -47.51300000  *
   321       H         73.61100000  *  149.64000000  * -48.47500000  *
   322       C         76.62200000  *  154.81500000  * -47.78800000  *
   323       O         77.41400000  *  154.59700000  * -48.69700000  *
   324       N         77.01700000  *  155.22600000  * -46.58100000  *
   325       H         76.29800000  *  155.26800000  * -45.86500000  *
   326       C         78.42200000  *  155.28900000  * -46.15900000  *
   327       H         79.06600000  *  155.59300000  * -46.98900000  *
   328       C         78.56700000  *  156.26000000  * -44.97900000  *
   329       H         78.02700000  *  155.87500000  * -44.10900000  *
   330       H         79.62500000  *  156.33900000  * -44.73000000  *
   331       C         78.01500000  *  157.64300000  * -45.34000000  *
   332       H         78.45100000  *  157.95800000  * -46.27300000  *
   333       H         76.93600000  *  157.57500000  * -45.50000000  *
   334       C         78.25100000  *  158.72500000  * -44.27900000  *
   335       H         77.97800000  *  159.68000000  * -44.73200000  *
   336       H         77.56000000  *  158.53300000  * -43.46900000  *
   337       C         79.67700000  *  158.85000000  * -43.70900000  *
   338       H         80.38400000  *  158.36300000  * -44.39700000  *
   339       H         79.95000000  *  159.91100000  * -43.68600000  *
   340       N         79.78800000  *  158.26900000  * -42.33500000  *
   341       H         79.63700000  *  157.26100000  * -42.37000000  *
   342       H         80.69600000  *  158.42600000  * -41.93200000  *
   343       H         79.10400000  *  158.64600000  * -41.70100000  *
   344       C         78.82300000  *  153.89100000  * -45.72900000  *
   345       O         78.09100000  *  153.31500000  * -44.93700000  *
   346       N         79.90700000  *  153.32000000  * -46.24700000  *
   347       H         80.40500000  *  153.76400000  * -47.01000000  *
   348       C         80.34300000  *  152.02200000  * -45.76800000  *
   349       H         79.49500000  *  151.49800000  * -45.35900000  *
   350       C         80.94400000  *  151.18600000  * -46.89500000  *
   351       H         81.78600000  *  151.78200000  * -47.16900000  *
   352       C         81.42400000  *  149.85200000  * -46.34500000  *
   353       H         80.65600000  *  149.35200000  * -45.75200000  *
   354       H         81.67900000  *  149.19900000  * -47.17900000  *
   355       H         82.34500000  *  149.95700000  * -45.76100000  *
   356       C         79.89700000  *  150.97600000  * -47.99700000  *
   357       H         79.60200000  *  151.87000000  * -48.50000000  *
   358       H         80.28300000  *  150.30500000  * -48.75000000  *
   359       C         78.59100000  *  150.36100000  * -47.52600000  *
   360       H         78.17700000  *  150.90100000  * -46.69000000  *
   361       H         77.89400000  *  150.33700000  * -48.36300000  *
   362       H         78.77100000  *  149.33300000  * -47.20900000  *
   363       C         81.33300000  *  152.07100000  * -44.61400000  *
   364       O         82.16700000  *  152.98000000  * -44.51900000  *
   365       N         81.21100000  *  151.07100000  * -43.74300000  *
   366       H         80.50300000  *  150.36100000  * -43.92800000  *
   367       C         82.04400000  *  150.90200000  * -42.55200000  *
   368       H         81.47500000  *  151.18100000  * -41.66300000  *
   369       H         82.35800000  *  149.86100000  * -42.45900000  *
   370       H         82.94700000  *  151.51400000  * -42.62000000  *
   371       H         81.25700000  *  144.04600000  * -57.89900000  *
   372       C         80.50000000  *  144.84100000  * -57.88800000  *
   373       O         79.71500000  *  144.99000000  * -58.82400000  *
   374       N         80.49900000  *  145.60300000  * -56.79700000  *
   375       H         81.28000000  *  145.52500000  * -56.16600000  *
   376       C         79.57000000  *  146.70600000  * -56.61200000  *
   377       H         78.57500000  *  146.34400000  * -56.42300000  *
   378       C         80.00500000  *  147.61000000  * -55.44200000  *
   379       H         80.89800000  *  148.18000000  * -55.68500000  *
   380       C         78.90600000  *  148.60800000  * -55.12500000  *
   381       H         77.92000000  *  148.14100000  * -55.17600000  *
   382       H         79.04500000  *  148.98700000  * -54.11600000  *
   383       H         78.93800000  *  149.43600000  * -55.83300000  *
   384       C         80.32100000  *  146.76200000  * -54.20900000  *
   385       H         81.19200000  *  146.13400000  * -54.40600000  *
   386       H         80.59400000  *  147.42200000  * -53.38900000  *
   387       C         79.18400000  *  145.87900000  * -53.76500000  *
   388       H         78.77800000  *  145.31100000  * -54.59400000  *
   389       H         79.50900000  *  145.12200000  * -53.06500000  *
   390       H         78.38800000  *  146.48300000  * -53.33500000  *
   391       C         79.54300000  *  147.54500000  * -57.87900000  *
   392       O         78.48200000  *  147.77900000  * -58.45100000  *
   393       N         80.72300000  *  147.98900000  * -58.30900000  *
   394       H         81.55800000  *  147.70100000  * -57.81200000  *
   395       C         80.85900000  *  148.80400000  * -59.51100000  *
   396       H         80.33900000  *  149.74600000  * -59.38600000  *
   397       H         81.92800000  *  148.98500000  * -59.72900000  *
   398       H         80.37800000  *  148.32200000  * -60.38100000  *
   399       H         78.96400000  *  146.08700000  * -61.65600000  *
   400       C         77.87300000  *  146.08700000  * -61.51600000  *
   401       O         77.11500000  *  145.89500000  * -62.46400000  *
   402       N         77.44600000  *  146.31800000  * -60.28000000  *
   403       H         78.13400000  *  146.42500000  * -59.54900000  *
   404       C         76.02800000  *  146.35200000  * -59.94500000  *
   405       H         75.53300000  *  145.47600000  * -60.35900000  *
   406       C         75.84100000  *  146.37400000  * -58.43100000  *
   407       H         76.20500000  *  147.30400000  * -58.01800000  *
   408       H         74.76300000  *  146.35700000  * -58.24200000  *
   409       C         76.47200000  *  145.22200000  * -57.65900000  *
   410       H         77.55000000  *  145.23900000  * -57.74900000  *
   411       C         76.08000000  *  145.34100000  * -56.19200000  *
   412       H         74.99900000  *  145.23000000  * -56.07700000  *
   413       H         76.57300000  *  144.55300000  * -55.62900000  *
   414       H         76.38500000  *  146.30900000  * -55.80100000  *
   415       C         75.99600000  *  143.89000000  * -58.23600000  *
   416       H         76.41500000  *  143.73000000  * -59.22900000  *
   417       H         76.32800000  *  143.07800000  * -57.59100000  *
   418       H         74.90500000  *  143.87400000  * -58.30500000  *
   419       C         75.32200000  *  147.55900000  * -60.54800000  *
   420       O         74.09500000  *  147.56800000  * -60.66200000  *
   421       N         76.08400000  *  148.63100000  * -60.82900000  *
   422       H         77.08200000  *  148.53500000  * -60.67700000  *
   423       C         75.60100000  *  149.83300000  * -61.53400000  *
   424       H         74.83700000  *  150.33500000  * -60.94100000  *
   425       H         76.43800000  *  150.53300000  * -61.75900000  *
   426       H         75.13800000  *  149.54900000  * -62.49200000  *
   427       H         62.79000000  *  145.77200000  * -59.27600000  *
   428       C         63.71000000  *  145.72000000  * -58.67500000  *
   429       O         63.77900000  *  145.02200000  * -57.66400000  *
   430       N         64.72400000  *  146.45200000  * -59.11400000  *
   431       H         64.63800000  *  147.05100000  * -59.92700000  *
   432       C         65.97100000  *  146.53500000  * -58.38100000  *
   433       H         65.88400000  *  146.09200000  * -57.38600000  *
   434       C         67.11600000  *  145.87700000  * -59.11400000  *
   435       H         67.33600000  *  146.42600000  * -60.03000000  *
   436       C         68.35100000  *  145.87800000  * -58.21400000  *
   437       H         68.14700000  *  145.31400000  * -57.31800000  *
   438       H         69.21000000  *  145.44500000  * -58.72400000  *
   439       H         68.64100000  *  146.89000000  * -57.94500000  *
   440       C         66.72800000  *  144.44400000  * -59.47800000  *
   441       H         66.54900000  *  143.87300000  * -58.56400000  *
   442       H         65.81500000  *  144.42400000  * -60.06800000  *
   443       C         67.77400000  *  143.72700000  * -60.29600000  *
   444       H         68.68300000  *  143.57700000  * -59.72200000  *
   445       H         67.37700000  *  142.75300000  * -60.59800000  *
   446       H         68.02300000  *  144.31300000  * -61.18000000  *
   447       C         66.29500000  *  148.01000000  * -58.22000000  *
   448       O         66.21200000  *  148.78000000  * -59.18400000  *
   449       N         66.54900000  *  148.43900000  * -56.98200000  *
   450       H         66.62000000  *  147.75800000  * -56.23100000  *
   451       C         66.89000000  *  149.83500000  * -56.68600000  *
   452       H         66.07500000  *  150.48100000  * -57.01300000  *
   453       C         67.09900000  *  150.04300000  * -55.18100000  *
   454       H         67.89500000  *  149.38300000  * -54.83200000  *
   455       C         67.47900000  *  151.48600000  * -54.84100000  *
   456       H         66.65400000  *  152.16300000  * -55.06500000  *
   457       H         67.71600000  *  151.53700000  * -53.78200000  *
   458       H         68.35700000  *  151.80100000  * -55.40200000  *
   459       C         65.82000000  *  149.72500000  * -54.40500000  *
   460       H         65.54700000  *  148.68000000  * -54.51600000  *
   461       H         66.00000000  *  149.91600000  * -53.35300000  *
   462       H         65.00100000  *  150.34900000  * -54.75800000  *
   463       C         68.15000000  *  150.21100000  * -57.45900000  *
   464       O         69.17700000  *  149.53800000  * -57.34000000  *
   465       N         68.08000000  *  151.28300000  * -58.25100000  *
   466       H         67.22500000  *  151.80400000  * -58.24500000  *
   467       C         69.18900000  *  151.69800000  * -59.08000000  *
   468       H         69.52500000  *  150.81900000  * -59.63900000  *
   469       C         68.73700000  *  152.76800000  * -60.08300000  *
   470       H         67.83400000  *  152.41100000  * -60.57900000  *
   471       H         68.47700000  *  153.68100000  * -59.53700000  *
   472       C         69.79100000  *  153.06900000  * -61.13100000  *
   473       H         70.72100000  *  153.35000000  * -60.64200000  *
   474       H         69.97400000  *  152.16800000  * -61.71600000  *
   475       C         69.35100000  *  154.17900000  * -62.08100000  *
   476       H         68.50200000  *  153.81400000  * -62.66100000  *
   477       H         69.02300000  *  155.05600000  * -61.52200000  *
   478       C         70.49800000  *  154.55900000  * -63.02400000  *
   479       H         71.33900000  *  154.89000000  * -62.40800000  *
   480       H         70.81900000  *  153.66100000  * -63.56600000  *
   481       N         70.11800000  *  155.62600000  * -63.99700000  *
   482       H         69.74700000  *  156.41600000  * -63.48300000  *
   483       H         70.92600000  *  155.93300000  * -64.52500000  *
   484       H         69.41500000  *  155.27800000  * -64.63600000  *
   485       C         70.36000000  *  152.21400000  * -58.25300000  *
   486       O         70.19400000  *  153.07400000  * -57.38700000  *
   487       N         71.53700000  *  151.64500000  * -58.50700000  *
   488       H         71.59600000  *  150.90400000  * -59.18600000  *
   489       C         72.75000000  *  152.07400000  * -57.83600000  *
   490       H         72.53800000  *  152.52600000  * -56.87100000  *
   491       C         73.72700000  *  150.91100000  * -57.67000000  *
   492       H         73.31500000  *  150.22100000  * -56.93700000  *
   493       H         73.77900000  *  150.36900000  * -58.62000000  *
   494       C         75.16700000  *  151.27300000  * -57.28800000  *
   495       H         75.65500000  *  151.80300000  * -58.10000000  *
   496       C         75.18300000  *  152.16500000  * -56.05900000  *
   497       H         74.60800000  *  151.72100000  * -55.25200000  *
   498       H         76.21000000  *  152.29600000  * -55.73500000  *
   499       H         74.78900000  *  153.14000000  * -56.31200000  *
   500       C         75.93300000  *  149.99400000  * -57.01300000  *
   501       H         75.98300000  *  149.42100000  * -57.93300000  *
   502       H         76.94600000  *  150.24200000  * -56.71200000  *
   503       H         75.43500000  *  149.41000000  * -56.23200000  *
   504       C         73.31900000  *  153.11300000  * -58.79500000  *
   505       O         73.76900000  *  152.77900000  * -59.89700000  *
   506       N         73.26700000  *  154.36900000  * -58.37800000  *
   507       H         72.92600000  *  154.57000000  * -57.44900000  *
   508       C         73.73400000  *  155.46600000  * -59.19700000  *
   509       H         73.47500000  *  155.26500000  * -60.23600000  *
   510       C         73.02500000  *  156.74200000  * -58.76000000  *
   511       H         73.45000000  *  157.06300000  * -57.80900000  *
   512       H         73.23600000  *  157.53300000  * -59.48700000  *
   513       C         71.51300000  *  156.60300000  * -58.58700000  *
   514       H         71.27400000  *  155.80900000  * -57.88500000  *
   515       C         70.97400000  *  157.88000000  * -58.01900000  *
   516       H         71.37000000  *  158.74600000  * -58.56000000  *
   517       H         69.88800000  *  157.89100000  * -58.09300000  *
   518       H         71.22100000  *  157.96000000  * -56.96600000  *
   519       C         70.85100000  *  156.29000000  * -59.92300000  *
   520       H         71.28300000  *  155.39700000  * -60.34200000  *
   521       H         69.78900000  *  156.14400000  * -59.75100000  *
   522       H         71.00300000  *  157.12700000  * -60.60700000  *
   523       C         75.24500000  *  155.67800000  * -59.15800000  *
   524       O         75.83900000  *  156.04700000  * -60.17600000  *
   525       N         75.86200000  *  155.44600000  * -57.99600000  *
   526       H         75.29500000  *  155.17900000  * -57.20400000  *
   527       C         77.30800000  *  155.64700000  * -57.82900000  *
   528       H         77.80800000  *  155.40400000  * -58.76600000  *
   529       C         77.60000000  *  157.11700000  * -57.51900000  *
   530       H         76.91700000  *  157.54400000  * -56.80300000  *
   531       H         78.58200000  *  157.17000000  * -57.04800000  *
   532       C         77.65600000  *  157.97500000  * -58.75600000  *
   533       O         78.67800000  *  157.91700000  * -59.48300000  *
   534       O         76.67400000  *  158.70400000  * -59.00000000  *
   535       C         77.97900000  *  154.81700000  * -56.73400000  *
   536       O         77.37100000  *  154.52100000  * -55.70400000  *
   537       N         79.24700000  *  154.47700000  * -56.96600000  *
   538       H         79.69800000  *  154.82400000  * -57.79800000  *
   539       C         80.06100000  *  153.73800000  * -56.00300000  *
   540       H         79.55400000  *  153.69900000  * -55.05200000  *
   541       C         80.36600000  *  152.29800000  * -56.50400000  *
   542       H         79.42700000  *  151.75200000  * -56.56200000  *
   543       C         80.98100000  *  152.34300000  * -57.88400000  *
   544       H         82.06600000  *  152.43300000  * -57.82100000  *
   545       H         80.74600000  *  151.41400000  * -58.37900000  *
   546       H         80.59600000  *  153.14500000  * -58.51000000  *
   547       C         81.29900000  *  151.58800000  * -55.53900000  *
   548       H         80.81100000  *  151.54900000  * -54.57200000  *
   549       H         81.47300000  *  150.57200000  * -55.87800000  *
   550       H         82.25900000  *  152.09200000  * -55.44900000  *
   551       C         81.36500000  *  154.53600000  * -55.81000000  *
   552       O         82.27000000  *  154.48900000  * -56.64700000  *
   553       N         81.45200000  *  155.28200000  * -54.71000000  *
   554       H         80.67600000  *  155.30400000  * -54.06400000  *
   555       C         82.62100000  *  156.11100000  * -54.44300000  *
   556       H         83.20500000  *  156.21800000  * -55.35800000  *
   557       H         82.32200000  *  157.12800000  * -54.14500000  *
   558       H         83.29700000  *  155.73900000  * -53.65600000  *
   559       H         84.58000000  *  155.17100000  * -47.07300000  *
   560       C         84.22500000  *  154.98400000  * -48.09100000  *
   561       O         84.63900000  *  155.65900000  * -49.04200000  *
   562       N         83.35800000  *  153.99100000  * -48.22200000  *
   563       H         83.13600000  *  153.42800000  * -47.41700000  *
   564       C         82.77600000  *  153.65100000  * -49.50600000  *
   565       H         83.37000000  *  154.04700000  * -50.31700000  *
   566       C         82.71900000  *  152.14000000  * -49.66000000  *
   567       H         83.74000000  *  151.87500000  * -49.95700000  *
   568       H         82.64400000  *  151.54600000  * -48.78400000  *
   569       C         81.82600000  *  151.61900000  * -50.77900000  *
   570       H         80.79100000  *  151.88400000  * -50.58700000  *
   571       C         82.25800000  *  152.23100000  * -52.09200000  *
   572       H         83.31100000  *  152.49100000  * -52.08900000  *
   573       H         82.09300000  *  151.51300000  * -52.88400000  *
   574       H         81.65400000  *  153.10900000  * -52.31200000  *
   575       C         81.89900000  *  150.09400000  * -50.82200000  *
   576       H         81.91300000  *  149.66400000  * -49.82700000  *
   577       H         81.05200000  *  149.70600000  * -51.39100000  *
   578       H         82.82500000  *  149.80300000  * -51.32100000  *
   579       C         81.36700000  *  154.23200000  * -49.54800000  *
   580       O         80.51800000  *  153.85700000  * -48.74500000  *
   581       N         81.13100000  *  155.16100000  * -50.46700000  *
   582       H         81.84500000  *  155.34800000  * -51.16200000  *
   583       C         79.82200000  *  155.78100000  * -50.60800000  *
   584       H         79.27400000  *  155.67000000  * -49.68700000  *
   585       C         79.96700000  *  157.27800000  * -50.86800000  *
   586       H         80.42300000  *  157.50400000  * -51.79700000  *
   587       H         78.95400000  *  157.66400000  * -50.98900000  *
   588       C         80.57600000  *  158.04300000  * -49.72300000  *
   589       C         79.79300000  *  158.48000000  * -48.65600000  *
   590       H         78.73500000  *  158.25400000  * -48.66900000  *
   591       C         80.35600000  *  159.18600000  * -47.59400000  *
   592       H         79.75300000  *  159.56200000  * -46.79700000  *
   593       C         81.71600000  *  159.45200000  * -47.58700000  *
   594       O         82.27600000  *  160.12500000  * -46.52100000  *
   595       H         83.20600000  *  160.30800000  * -46.74500000  *
   596       C         82.51400000  *  159.02600000  * -48.63700000  *
   597       H         83.58200000  *  159.23300000  * -48.65000000  *
   598       C         81.94100000  *  158.32800000  * -49.69800000  *
   599       H         82.57400000  *  157.98100000  * -50.50200000  *
   600       C         79.04800000  *  155.15800000  * -51.76500000  *
   601       O         79.54400000  *  155.08000000  * -52.88800000  *
   602       N         77.86400000  *  154.61700000  * -51.49400000  *
   603       H         77.54100000  *  154.62800000  * -50.53200000  *
   604       C         76.98300000  *  154.05500000  * -52.51700000  *
   605       H         77.50900000  *  154.01000000  * -53.46300000  *
   606       C         76.54300000  *  152.62100000  * -52.17600000  *
   607       H         75.83500000  *  152.66000000  * -51.35700000  *
   608       H         76.01300000  *  152.22300000  * -53.04200000  *
   609       C         77.67300000  *  151.64800000  * -51.80300000  *
   610       H         78.17500000  *  151.99100000  * -50.89800000  *
   611       C         77.09900000  *  150.25700000  * -51.54000000  *
   612       H         76.61600000  *  149.87300000  * -52.44000000  *
   613       H         77.90000000  *  149.57700000  * -51.24700000  *
   614       H         76.37100000  *  150.30700000  * -50.73300000  *
   615       C         78.69500000  *  151.52900000  * -52.92700000  *
   616       H         79.21500000  *  152.47600000  * -53.05100000  *
   617       H         79.42900000  *  150.76800000  * -52.67300000  *
   618       H         78.19500000  *  151.26500000  * -53.86000000  *
   619       C         75.78700000  *  154.98600000  * -52.67200000  *
   620       O         75.10400000  *  155.25800000  * -51.68100000  *
   621       N         75.54700000  *  155.50800000  * -53.87800000  *
   622       H         76.14500000  *  155.25500000  * -54.66000000  *
   623       C         74.40900000  *  156.37500000  * -54.09400000  *
   624       H         73.97600000  *  156.70200000  * -53.15000000  *
   625       C         74.83400000  *  157.63700000  * -54.81800000  *
   626       H         75.25500000  *  157.34500000  * -55.76600000  *
   627       C         73.61400000  *  158.52200000  * -55.10900000  *
   628       H         73.11700000  *  158.76900000  * -54.17500000  *
   629       H         73.94100000  *  159.43100000  * -55.61500000  *
   630       H         72.91600000  *  158.00900000  * -55.76200000  *
   631       C         75.84000000  *  158.38200000  * -53.94900000  *
   632       H         75.28100000  *  158.78400000  * -53.13000000  *
   633       H         76.65600000  *  157.75800000  * -53.60500000  *
   634       H         76.26100000  *  159.20400000  * -54.52500000  *
   635       C         73.31400000  *  155.64400000  * -54.85300000  *
   636       O         73.49500000  *  155.22100000  * -55.99400000  *
   637       N         72.21100000  *  155.38100000  * -54.16000000  *
   638       H         72.14100000  *  155.73200000  * -53.20900000  *
   639       C         71.03400000  *  154.71500000  * -54.70600000  *
   640       H         71.28600000  *  154.25500000  * -55.65700000  *
   641       C         70.57000000  *  153.61600000  * -53.74600000  *
   642       H         70.42400000  *  154.04900000  * -52.75700000  *
   643       H         69.60000000  *  153.25800000  * -54.08600000  *
   644       C         71.50000000  *  152.42300000  * -53.62700000  *
   645       C         71.36400000  *  151.33300000  * -54.50800000  *
   646       H         70.62500000  *  151.35800000  * -55.29500000  *
   647       C         72.18100000  *  150.19700000  * -54.36300000  *
   648       H         72.06500000  *  149.35700000  * -55.03600000  *
   649       C         73.14400000  *  150.15000000  * -53.34100000  *
   650       H         73.77300000  *  149.27600000  * -53.23000000  *
   651       C         73.28600000  *  151.23900000  * -52.46400000  *
   652       H         74.01800000  *  151.19500000  * -51.67200000  *
   653       C         72.47000000  *  152.37700000  * -52.60700000  *
   654       H         72.58000000  *  153.20900000  * -51.92500000  *
   655       C         69.91100000  *  155.72700000  * -54.94400000  *
   656       O         69.77200000  *  156.69600000  * -54.19600000  *
   657       N         69.08600000  *  155.51100000  * -55.97000000  *
   658       H         69.24000000  *  154.69000000  * -56.54700000  *
   659       C         67.82300000  *  156.25300000  * -56.11300000  *
   660       H         68.06500000  *  157.30200000  * -56.28600000  *
   661       C         67.03300000  *  155.74900000  * -57.33400000  *
   662       H         66.16900000  *  156.40100000  * -57.46300000  *
   663       H         67.66100000  *  155.83000000  * -58.22200000  *
   664       C         66.54800000  *  154.29800000  * -57.19100000  *
   665       H         67.41700000  *  153.64800000  * -57.07700000  *
   666       H         65.94200000  *  154.20900000  * -56.29300000  *
   667       C         65.68900000  *  153.80400000  * -58.35700000  *
   668       O         65.17700000  *  154.61700000  * -59.16000000  *
   669       O         65.48600000  *  152.57100000  * -58.43600000  *
   670       C         66.98700000  *  156.16800000  * -54.81900000  *
   671       O         66.91900000  *  155.11100000  * -54.18700000  *
   672       N         66.36500000  *  157.26600000  * -54.38800000  *
   673       H         66.40700000  *  158.11400000  * -54.93600000  *
   674       C         65.50400000  *  157.25000000  * -53.20200000  *
   675       H         65.98000000  *  156.63700000  * -52.43400000  *
   676       C         65.37700000  *  158.66700000  * -52.63800000  *
   677       H         66.37100000  *  159.03200000  * -52.38700000  *
   678       H         64.96400000  *  159.31900000  * -53.40900000  *
   679       C         64.51400000  *  158.76200000  * -51.39400000  *
   680       C         63.20400000  *  159.27200000  * -51.47500000  *
   681       H         62.80600000  *  159.60200000  * -52.42500000  *
   682       C         62.40500000  *  159.35000000  * -50.32100000  *
   683       H         61.39800000  *  159.74000000  * -50.38800000  *
   684       C         62.91200000  *  158.91600000  * -49.08400000  *
   685       H         62.29600000  *  158.97300000  * -48.19600000  *
   686       C         64.22100000  *  158.40900000  * -49.00000000  *
   687       H         64.61100000  *  158.08000000  * -48.04700000  *
   688       C         65.02100000  *  158.33100000  * -50.15400000  *
   689       H         66.02700000  *  157.94000000  * -50.08800000  *
   690       C         64.12600000  *  156.63800000  * -53.50400000  *
   691       O         63.47600000  *  157.01300000  * -54.48300000  *
   692       N         63.66100000  *  155.74400000  * -52.62800000  *
   693       H         64.26900000  *  155.46900000  * -51.86600000  *
   694       C         62.26700000  *  155.29200000  * -52.55500000  *
   695       H         61.66700000  *  155.83100000  * -53.29100000  *
   696       C         62.15200000  *  153.78600000  * -52.84600000  *
   697       H         62.90100000  *  153.24900000  * -52.26800000  *
   698       H         61.16900000  *  153.46300000  * -52.49900000  *
   699       C         62.27500000  *  153.42900000  * -54.34100000  *
   700       H         61.89100000  *  154.24900000  * -54.94600000  *
   701       C         63.72400000  *  153.14400000  * -54.73500000  *
   702       H         64.12700000  *  152.34400000  * -54.11700000  *
   703       H         63.77700000  *  152.86500000  * -55.78700000  *
   704       H         64.32900000  *  154.03600000  * -54.58900000  *
   705       C         61.45000000  *  152.18100000  * -54.66600000  *
   706       H         60.40900000  *  152.34000000  * -54.38100000  *
   707       H         61.48300000  *  151.98900000  * -55.73700000  *
   708       H         61.83900000  *  151.31600000  * -54.13000000  *
   709       C         61.69000000  *  155.63400000  * -51.17700000  *
   710       O         62.40200000  *  155.63100000  * -50.17500000  *
   711       N         60.40700000  *  155.98400000  * -51.14000000  *
   712       H         59.89200000  *  155.98100000  * -52.01200000  *
   713       C         59.77600000  *  156.68300000  * -50.01600000  *
   714       H         60.43000000  *  157.50400000  * -49.72200000  *
   715       C         58.45900000  *  157.30000000  * -50.50600000  *
   716       H         57.72700000  *  156.50200000  * -50.63900000  *
   717       H         58.09300000  *  157.98000000  * -49.74000000  *
   718       C         58.56400000  *  158.05700000  * -51.81100000  *
   719       N         58.58600000  *  157.47600000  * -53.08500000  *
   720       C         58.71400000  *  158.49500000  * -53.95200000  *
   721       H         58.76100000  *  158.39300000  * -55.03100000  *
   722       N         58.77900000  *  159.66400000  * -53.29200000  *
   723       H         58.87500000  *  160.57600000  * -53.72900000  *
   724       C         58.69100000  *  159.40800000  * -51.94200000  *
   725       H         58.71700000  *  160.13200000  * -51.13600000  *
   726       C         59.55100000  *  155.84300000  * -48.74500000  *
   727       O         59.45100000  *  156.41500000  * -47.65900000  *
   728       N         59.45800000  *  154.51300000  * -48.85700000  *
   729       H         59.56500000  *  154.10300000  * -49.77500000  *
   730       C         59.09700000  *  153.60600000  * -47.75600000  *
   731       H         59.56200000  *  153.96600000  * -46.83800000  *
   732       C         57.56500000  *  153.64800000  * -47.56900000  *
   733       H         57.28500000  *  154.66400000  * -47.28700000  *
   734       H         57.07300000  *  153.41300000  * -48.51400000  *
   735       C         57.04400000  *  152.68300000  * -46.49200000  *
   736       H         56.91700000  *  151.69600000  * -46.93200000  *
   737       H         57.77400000  *  152.61400000  * -45.68700000  *
   738       C         55.72700000  *  153.14100000  * -45.87600000  *
   739       O         55.68800000  *  153.84400000  * -44.88000000  *
   740       N         54.59600000  *  152.76600000  * -46.43400000  *
   741       H         53.74700000  *  153.09100000  * -45.99800000  *
   742       H         54.59700000  *  152.21600000  * -47.27400000  *
   743       C         59.61200000  *  152.17400000  * -47.99700000  *
   744       O         59.68100000  *  151.72200000  * -49.14300000  *
   745       N         59.96000000  *  151.45200000  * -46.92500000  *
   746       H         59.86100000  *  151.88000000  * -46.00500000  *
   747       C         60.28700000  *  150.01900000  * -46.99200000  *
   748       H         60.58400000  *  149.79700000  * -48.01300000  *
   749       C         61.51200000  *  149.68600000  * -46.12200000  *
   750       H         61.83900000  *  148.67800000  * -46.38200000  *
   751       H         62.32200000  *  150.36600000  * -46.39300000  *
   752       C         61.28700000  *  149.74100000  * -44.60700000  *
   753       O         60.31000000  *  149.13500000  * -44.12000000  *
   754       O         62.14000000  *  150.33600000  * -43.90700000  *
   755       C         59.07800000  *  149.10600000  * -46.69600000  *
   756       O         58.04600000  *  149.53900000  * -46.16400000  *
   757       N         59.19100000  *  147.81900000  * -47.04800000  *
   758       H         60.03800000  *  147.50900000  * -47.52500000  *
   759       C         58.10100000  *  146.88000000  * -46.84100000  *
   760       H         57.21800000  *  147.32500000  * -47.29300000  *
   761       C         58.41200000  *  145.57700000  * -47.59200000  *
   762       H         58.61300000  *  145.80400000  * -48.64400000  *
   763       H         59.28800000  *  145.12100000  * -47.15800000  *
   764       C         57.28700000  *  144.52700000  * -47.51900000  *
   765       H         57.05600000  *  144.28000000  * -46.48700000  *
   766       C         56.00700000  *  145.04400000  * -48.19600000  *
   767       H         56.23500000  *  145.37800000  * -49.20200000  *
   768       H         55.26800000  *  144.24500000  * -48.23100000  *
   769       H         55.59500000  *  145.87000000  * -47.62900000  *
   770       C         57.76800000  *  143.24900000  * -48.17500000  *
   771       H         58.61500000  *  142.85400000  * -47.62000000  *
   772       H         56.97300000  *  142.50400000  * -48.17100000  *
   773       H         58.06400000  *  143.44500000  * -49.20700000  *
   774       C         57.76400000  *  146.61300000  * -45.36900000  *
   775       O         56.60900000  *  146.37600000  * -45.03000000  *
   776       N         58.75700000  *  146.67700000  * -44.48800000  *
   777       H         59.64000000  *  147.08600000  * -44.79000000  *
   778       C         58.49100000  *  146.46700000  * -43.07300000  *
   779       H         57.97900000  *  145.55100000  * -42.87200000  *
   780       C         59.78200000  *  146.47800000  * -42.25400000  *
   781       H         60.44800000  *  145.70000000  * -42.62000000  *
   782       H         60.28600000  *  147.44000000  * -42.35600000  *
   783       C         59.49200000  *  146.22900000  * -40.76500000  *
   784       H         58.94200000  *  147.08300000  * -40.37400000  *
   785       H         58.87100000  *  145.33200000  * -40.67600000  *
   786       C         60.74500000  *  146.03800000  * -39.93500000  *
   787       H         61.36100000  *  145.25900000  * -40.37900000  *
   788       H         61.30800000  *  146.97100000  * -39.90700000  *
   789       C         60.37600000  *  145.60700000  * -38.51700000  *
   790       H         59.98500000  *  144.58900000  * -38.53700000  *
   791       H         61.27900000  *  145.61300000  * -37.90300000  *
   792       N         59.34600000  *  146.53100000  * -37.94700000  *
   793       H         58.44600000  *  146.48100000  * -38.44300000  *
   794       H         59.09000000  *  146.27800000  * -37.00400000  *
   795       H         59.61300000  *  147.50600000  * -37.97800000  *
   796       C         57.55800000  *  147.53800000  * -42.51200000  *
   797       O         56.61300000  *  147.23400000  * -41.78300000  *
   798       N         57.83500000  *  148.81600000  * -42.79700000  *
   799       H         58.66300000  *  149.01500000  * -43.36300000  *
   800       C         56.99300000  *  149.92100000  * -42.31700000  *
   801       H         56.87500000  *  149.81800000  * -41.23600000  *
   802       C         57.65700000  *  151.27900000  * -42.59200000  *
   803       H         58.65800000  *  151.27600000  * -42.15800000  *
   804       H         57.74200000  *  151.43600000  * -43.66800000  *
   805       C         56.83800000  *  152.41800000  * -41.95900000  *
   806       H         55.87100000  *  152.48700000  * -42.45800000  *
   807       H         56.66700000  *  152.19000000  * -40.90500000  *
   808       C         57.54100000  *  153.77800000  * -42.05600000  *
   809       H         58.47600000  *  153.73700000  * -41.49400000  *
   810       H         57.75400000  *  154.00300000  * -43.10200000  *
   811       C         56.62800000  *  154.86100000  * -41.46400000  *
   812       H         55.69800000  *  154.88600000  * -42.04100000  *
   813       H         56.37400000  *  154.57900000  * -40.43700000  *
   814       N         57.26900000  *  156.20000000  * -41.47400000  *
   815       H         57.48700000  *  156.49700000  * -42.41400000  *
   816       H         56.65700000  *  156.89600000  * -41.07100000  *
   817       H         58.12300000  *  156.20200000  * -40.93700000  *
   818       C         55.59500000  *  149.82000000  * -42.91900000  *
   819       O         54.61100000  *  150.04600000  * -42.22100000  *
   820       N         55.49500000  *  149.42600000  * -44.18900000  *
   821       H         56.35000000  *  149.26300000  * -44.71300000  *
   822       C         54.20500000  *  149.26000000  * -44.85200000  *
   823       H         53.62600000  *  150.17500000  * -44.72500000  *
   824       C         54.41000000  *  148.98800000  * -46.34000000  *
   825       H         54.98900000  *  149.80200000  * -46.77700000  *
   826       H         55.00200000  *  148.07700000  * -46.45200000  *
   827       C         53.12600000  *  148.85300000  * -47.10800000  *
   828       C         52.23100000  *  149.92200000  * -47.18600000  *
   829       H         52.46300000  *  150.85600000  * -46.69900000  *
   830       C         51.01500000  *  149.79500000  * -47.88400000  *
   831       H         50.32500000  *  150.62800000  * -47.91800000  *
   832       C         50.69700000  *  148.60300000  * -48.50200000  *
   833       H         49.75200000  *  148.50200000  * -49.02000000  *
   834       C         51.58700000  *  147.52100000  * -48.43200000  *
   835       H         51.33500000  *  146.58300000  * -48.91200000  *
   836       C         52.79500000  *  147.65400000  * -47.73300000  *
   837       H         53.46700000  *  146.81000000  * -47.67200000  *
   838       C         53.37400000  *  148.12200000  * -44.22700000  *
   839       O         52.16900000  *  148.28300000  * -44.00900000  *
   840       N         54.01600000  *  146.98100000  * -43.96600000  *
   841       H         55.00900000  *  146.90600000  * -44.17900000  *
   842       C         53.33800000  *  145.83600000  * -43.34100000  *
   843       H         52.47600000  *  145.52800000  * -43.93400000  *
   844       C         54.29200000  *  144.65000000  * -43.17000000  *
   845       H         55.15800000  *  145.02700000  * -42.63600000  *
   846       H         53.80700000  *  143.89200000  * -42.54700000  *
   847       C         54.73100000  *  144.00400000  * -44.46100000  *
   848       H         53.84700000  *  143.61400000  * -44.95900000  *
   849       H         55.19200000  *  144.69400000  * -45.15000000  *
   850       S         55.79700000  *  142.58100000  * -44.15400000  *
   851       C         57.05400000  *  143.29200000  * -43.18800000  *
   852       H         56.67800000  *  143.65800000  * -42.23500000  *
   853       H         57.80700000  *  142.53400000  * -42.98200000  *
   854       H         57.44300000  *  144.07900000  * -43.80900000  *
   855       C         52.84400000  *  146.26000000  * -41.95900000  *
   856       O         51.68200000  *  146.03200000  * -41.61400000  *
   857       N         53.72600000  *  146.88400000  * -41.17900000  *
   858       H         54.70100000  *  146.95700000  * -41.45300000  *
   859       C         53.34300000  *  147.35100000  * -39.84600000  *
   860       H         53.03400000  *  146.49700000  * -39.23800000  *
   861       C         54.50500000  *  148.07700000  * -39.15700000  *
   862       H         54.94100000  *  148.81500000  * -39.83000000  *
   863       H         54.12400000  *  148.60600000  * -38.28400000  *
   864       C         55.58400000  *  147.11500000  * -38.68500000  *
   865       O         55.26200000  *  145.90900000  * -38.57600000  *
   866       O         56.73300000  *  147.55200000  * -38.41700000  *
   867       C         52.15000000  *  148.27900000  * -39.96300000  *
   868       O         51.20300000  *  148.18000000  * -39.18700000  *
   869       N         52.18300000  *  149.16200000  * -40.95500000  *
   870       H         53.01600000  *  149.23700000  * -41.51800000  *
   871       C         51.08600000  *  150.10000000  * -41.17300000  *
   872       H         50.93100000  *  150.67400000  * -40.25800000  *
   873       C         51.42800000  *  151.06800000  * -42.31500000  *
   874       H         51.45500000  *  150.53900000  * -43.26600000  *
   875       H         50.66000000  *  151.83800000  * -42.36800000  *
   876       H         52.39300000  *  151.53600000  * -42.12800000  *
   877       C         49.78900000  *  149.37000000  * -41.49900000  *
   878       O         48.71100000  *  149.83600000  * -41.15600000  *
   879       N         49.90500000  *  148.22900000  * -42.16400000  *
   880       H         50.83800000  *  147.88500000  * -42.38200000  *
   881       C         48.74000000  *  147.45400000  * -42.57500000  *
   882       H         47.85700000  *  148.08600000  * -42.62800000  *
   883       H         48.90600000  *  147.02300000  * -43.58600000  *
   884       H         48.52600000  *  146.61900000  * -41.88800000  *
   885       H         72.54500000  *  137.05800000  * -55.15200000  *
   886       C         72.38600000  *  137.90500000  * -54.47400000  *
   887       O         73.28300000  *  138.71900000  * -54.28600000  *
   888       N         71.20100000  *  138.01500000  * -53.89800000  *
   889       H         70.47300000  *  137.31400000  * -54.05700000  *
   890       C         70.96800000  *  139.10000000  * -52.94900000  *
   891       H         71.50000000  *  140.00600000  * -53.22900000  *
   892       C         69.47700000  *  139.40500000  * -52.82500000  *
   893       H         69.09300000  *  139.71900000  * -53.79200000  *
   894       H         68.93000000  *  138.50600000  * -52.53300000  *
   895       C         69.17800000  *  140.45400000  * -51.81200000  *
   896       N         69.23000000  *  140.42300000  * -50.45900000  *
   897       C         68.94700000  *  141.69100000  * -50.01400000  *
   898       H         68.96900000  *  142.01200000  * -48.98400000  *
   899       N         68.72400000  *  142.47200000  * -51.05500000  *
   900       H         68.47200000  *  143.44500000  * -51.00700000  *
   901       C         68.85400000  *  141.75000000  * -52.15500000  *
   902       H         68.77100000  *  142.12600000  * -53.16500000  *
   903       C         71.52100000  *  138.65700000  * -51.58300000  *
   904       O         72.28000000  *  139.38000000  * -50.94700000  *
   905       N         71.11400000  *  137.47100000  * -51.14500000  *
   906       H         70.37100000  *  137.01600000  * -51.66500000  *
   907       C         71.55500000  *  136.88000000  * -49.87700000  *
   908       H         71.18200000  *  135.84900000  * -49.87900000  *
   909       C         73.07600000  *  136.85300000  * -49.83700000  *
   910       H         73.53100000  *  137.83300000  * -49.86900000  *
   911       H         73.36600000  *  136.47900000  * -48.85100000  *
   912       C         73.64700000  *  135.85900000  * -50.81700000  *
   913       H         73.29800000  *  134.87100000  * -50.67200000  *
   914       H         73.21600000  *  136.10500000  * -51.78700000  *
   915       C         75.11700000  *  136.08400000  * -50.99900000  *
   916       H         75.61200000  *  135.95400000  * -50.03300000  *
   917       H         75.49500000  *  135.33200000  * -51.69500000  *
   918       N         75.35800000  *  137.42700000  * -51.50600000  *
   919       H         74.62100000  *  138.12700000  * -51.38200000  *
   920       C         76.54800000  *  137.85900000  * -51.89000000  *
   921       N         77.59300000  *  137.04400000  * -51.81500000  *
   922       H         77.44700000  *  136.21200000  * -51.26800000  *
   923       H         78.49900000  *  137.44300000  * -51.92100000  *
   924       N         76.69000000  *  139.09300000  * -52.35600000  *
   925       H         75.86000000  *  139.69200000  * -52.33800000  *
   926       H         77.56200000  *  139.47800000  * -52.67100000  *
   927       C         71.03700000  *  137.42400000  * -48.54200000  *
   928       O         71.18700000  *  136.76800000  * -47.50900000  *
   929       N         70.43700000  *  138.60400000  * -48.51600000  *
   930       H         70.32800000  *  139.16900000  * -49.34700000  *
   931       C         69.93700000  *  139.07600000  * -47.23100000  *
   932       H         69.76500000  *  138.24900000  * -46.54100000  *
   933       C         70.93500000  *  140.04200000  * -46.56200000  *
   934       H         71.90900000  *  139.56600000  * -46.50900000  *
   935       H         71.04400000  *  140.94300000  * -47.17900000  *
   936       C         70.51300000  *  140.42800000  * -45.14700000  *
   937       O         70.17200000  *  139.51500000  * -44.35500000  *
   938       O         70.51000000  *  141.64400000  * -44.82500000  *
   939       C         68.58700000  *  139.73400000  * -47.37800000  *
   940       O         68.35000000  *  140.81000000  * -46.83500000  *
   941       N         67.68700000  *  139.08300000  * -48.11000000  *
   942       H         67.94300000  *  138.20800000  * -48.54500000  *
   943       C         66.35900000  *  139.64900000  * -48.29900000  *
   944       H         66.47700000  *  140.66700000  * -48.65900000  *
   945       C         65.54600000  *  138.81300000  * -49.28800000  *
   946       H         65.58300000  *  137.78400000  * -48.94500000  *
   947       H         64.50600000  *  139.14000000  * -49.25500000  *
   948       C         66.02700000  *  138.85500000  * -50.73600000  *
   949       H         67.06400000  *  138.52800000  * -50.78200000  *
   950       C         65.17300000  *  137.91700000  * -51.58300000  *
   951       H         64.15900000  *  138.30500000  * -51.68800000  *
   952       H         65.63400000  *  137.80700000  * -52.55000000  *
   953       H         65.13400000  *  136.93500000  * -51.11000000  *
   954       C         65.92100000  *  140.27700000  * -51.26400000  *
   955       H         66.42000000  *  140.99600000  * -50.63300000  *
   956       H         66.44200000  *  140.27500000  * -52.20900000  *
   957       H         64.88200000  *  140.56100000  * -51.39700000  *
   958       C         65.59400000  *  139.73400000  * -46.98200000  *
   959       O         65.58600000  *  138.79200000  * -46.16600000  *
   960       N         64.95500000  *  140.85500000  * -46.74600000  *
   961       H         64.96400000  *  141.58600000  * -47.44400000  *
   962       C         64.16300000  *  141.05900000  * -45.54900000  *
   963       H         63.55000000  *  140.16900000  * -45.41400000  *
   964       C         65.03700000  *  141.21900000  * -44.28600000  *
   965       H         64.39900000  *  141.28200000  * -43.40400000  *
   966       H         65.63200000  *  140.31400000  * -44.16800000  *
   967       C         65.97600000  *  142.43100000  * -44.28600000  *
   968       H         66.38900000  *  142.58200000  * -45.28100000  *
   969       H         65.42400000  *  143.32200000  * -43.98700000  *
   970       C         67.12900000  *  142.16300000  * -43.31200000  *
   971       H         66.72900000  *  141.88700000  * -42.33400000  *
   972       H         67.70800000  *  141.32200000  * -43.70300000  *
   973       C         68.03900000  *  143.38400000  * -43.15700000  *
   974       H         68.14700000  *  143.87600000  * -44.12900000  *
   975       H         67.55800000  *  144.09300000  * -42.47300000  *
   976       N         69.37100000  *  142.97100000  * -42.64400000  *
   977       H         69.86500000  *  142.40900000  * -43.35100000  *
   978       H         69.93600000  *  143.77700000  * -42.40600000  *
   979       H         69.27500000  *  142.41000000  * -41.80800000  *
   980       C         63.26400000  *  142.22800000  * -45.83900000  *
   981       O         63.62500000  *  143.07200000  * -46.66000000  *
   982       N         62.11200000  *  142.30300000  * -45.18600000  *
   983       C         61.62600000  *  141.34600000  * -44.17100000  *
   984       H         62.10000000  *  141.53200000  * -43.20900000  *
   985       H         61.74500000  *  140.31100000  * -44.47600000  *
   986       C         60.16400000  *  141.66900000  * -44.09500000  *
   987       H         59.73700000  *  141.34900000  * -43.14300000  *
   988       H         59.63700000  *  141.20600000  * -44.93200000  *
   989       C         60.16000000  *  143.18900000  * -44.24800000  *
   990       H         60.51600000  *  143.64900000  * -43.32100000  *
   991       H         59.20200000  *  143.56500000  * -44.57400000  *
   992       C         61.14500000  *  143.38000000  * -45.40300000  *
   993       H         60.63400000  *  143.20500000  * -46.34500000  *
   994       C         61.77100000  *  144.77100000  * -45.44800000  *
   995       O         61.39200000  *  145.58400000  * -46.27300000  *
   996       N         62.73100000  *  145.08700000  * -44.56000000  *
   997       H         62.97200000  *  144.39700000  * -43.86400000  *
   998       C         63.45200000  *  146.38200000  * -44.53400000  *
   999       H         62.72400000  *  147.19000000  * -44.43900000  *
  1000       C         64.40800000  *  146.44300000  * -43.32800000  *
  1001       H         65.09700000  *  145.60000000  * -43.38000000  *
  1002       H         64.99800000  *  147.35800000  * -43.40300000  *
  1003       C         63.71500000  *  146.45400000  * -41.95900000  *
  1004       H         63.02400000  *  147.29700000  * -41.92200000  *
  1005       H         63.14900000  *  145.53300000  * -41.82600000  *
  1006       C         64.72300000  *  146.56500000  * -40.81300000  *
  1007       O         65.75100000  *  145.90100000  * -40.78600000  *
  1008       N         64.47500000  *  147.39300000  * -39.82200000  *
  1009       H         65.15000000  *  147.45600000  * -39.07400000  *
  1010       H         63.65700000  *  147.98200000  * -39.82800000  *
  1011       C         64.29200000  *  146.67200000  * -45.79600000  *
  1012       O         64.51800000  *  147.82800000  * -46.14600000  *
  1013       N         64.76000000  *  145.62400000  * -46.47800000  *
  1014       H         64.45700000  *  144.70600000  * -46.18600000  *
  1015       C         65.53600000  *  145.68700000  * -47.71800000  *
  1016       H         66.09700000  *  146.62200000  * -47.75500000  *
  1017       C         66.55200000  *  144.51500000  * -47.74500000  *
  1018       H         66.05600000  *  143.58900000  * -47.46500000  *
  1019       H         66.92100000  *  144.38200000  * -48.76000000  *
  1020       C         67.78400000  *  144.71700000  * -46.87100000  *
  1021       O         68.08800000  *  145.80600000  * -46.41200000  *
  1022       N         68.54300000  *  143.67600000  * -46.60400000  *
  1023       H         69.41800000  *  143.83600000  * -46.13200000  *
  1024       H         68.29800000  *  142.72500000  * -46.86400000  *
  1025       C         64.63200000  *  145.69900000  * -48.96800000  *
  1026       O         65.15500000  *  145.60900000  * -50.07700000  *
  1027       N         63.30000000  *  145.80300000  * -48.83400000  *
  1028       H         62.89500000  *  145.87300000  * -47.90900000  *
  1029       C         62.40600000  *  145.84500000  * -49.97900000  *
  1030       H         62.94700000  *  145.74800000  * -50.91900000  *
  1031       C         61.36900000  *  144.72100000  * -49.88900000  *
  1032       H         60.76900000  *  144.86100000  * -48.99200000  *
  1033       H         60.74400000  *  144.79800000  * -50.77200000  *
  1034       C         62.03600000  *  143.32400000  * -49.85900000  *
  1035       H         62.67100000  *  143.24000000  * -48.98800000  *
  1036       C         61.00200000  *  142.26000000  * -49.77100000  *
  1037       H         60.24600000  *  142.42800000  * -50.53400000  *
  1038       H         61.44700000  *  141.27100000  * -49.89000000  *
  1039       H         60.52000000  *  142.31900000  * -48.79800000  *
  1040       C         62.89500000  *  143.12600000  * -51.08400000  *
  1041       H         63.82900000  *  143.66800000  * -50.95600000  *
  1042       H         63.12900000  *  142.06900000  * -51.20900000  *
  1043       H         62.39300000  *  143.49200000  * -51.96600000  *
  1044       C         61.76300000  *  147.21800000  * -49.95200000  *
  1045       O         61.15000000  *  147.60200000  * -48.96600000  *
  1046       N         61.90000000  *  147.98900000  * -51.02400000  *
  1047       H         62.39300000  *  147.61900000  * -51.83200000  *
  1048       C         61.43900000  *  149.37700000  * -51.06000000  *
  1049       H         61.05700000  *  149.67900000  * -50.08700000  *
  1050       C         62.59000000  *  150.30700000  * -51.41900000  *
  1051       H         62.91300000  *  150.08700000  * -52.43700000  *
  1052       H         62.20600000  *  151.32500000  * -51.38300000  *
  1053       C         63.80100000  *  150.20200000  * -50.49100000  *
  1054       H         64.25000000  *  149.21500000  * -50.57900000  *
  1055       C         64.79500000  *  151.24900000  * -50.95400000  *
  1056       H         64.42500000  *  152.23500000  * -50.68700000  *
  1057       H         65.75500000  *  151.06000000  * -50.48500000  *
  1058       H         64.92100000  *  151.21700000  * -52.03100000  *
  1059       C         63.47100000  *  150.46900000  * -49.02400000  *
  1060       H         62.86100000  *  149.65500000  * -48.63900000  *
  1061       H         64.38600000  *  150.50700000  * -48.43600000  *
  1062       H         62.93000000  *  151.41000000  * -48.92000000  *
  1063       C         60.31300000  *  149.55000000  * -52.05800000  *
  1064       O         60.40400000  *  149.07900000  * -53.17800000  *
  1065       N         59.26800000  *  150.25600000  * -51.67700000  *
  1066       H         59.36500000  *  150.76300000  * -50.80000000  *
  1067       C         58.08300000  *  150.44700000  * -52.50800000  *
  1068       H         58.17300000  *  149.92400000  * -53.45700000  *
  1069       C         56.81900000  *  149.90600000  * -51.78600000  *
  1070       H         55.94300000  *  150.08700000  * -52.41500000  *
  1071       C         56.95000000  *  148.40400000  * -51.54300000  *
  1072       H         57.75300000  *  148.18300000  * -50.83300000  *
  1073       H         56.01300000  *  148.00400000  * -51.15200000  *
  1074       H         57.15800000  *  147.91500000  * -52.48900000  *
  1075       C         56.64700000  *  150.60600000  * -50.43300000  *
  1076       H         57.48200000  *  150.38000000  * -49.77500000  *
  1077       H         56.60500000  *  151.68300000  * -50.57600000  *
  1078       C         55.37000000  *  150.22200000  * -49.68600000  *
  1079       H         55.48900000  *  149.24800000  * -49.22200000  *
  1080       H         55.17000000  *  150.96500000  * -48.91000000  *
  1081       H         54.52900000  *  150.16800000  * -50.38500000  *
  1082       C         57.87200000  *  151.93000000  * -52.81700000  *
  1083       O         58.38200000  *  152.79400000  * -52.10000000  *
  1084       N         57.14900000  *  152.22000000  * -53.89700000  *
  1085       H         56.70500000  *  151.48200000  * -54.43300000  *
  1086       C         56.84100000  *  153.60200000  * -54.22700000  *
  1087       H         57.16800000  *  154.27800000  * -53.43100000  *
  1088       C         57.50400000  *  154.05300000  * -55.54100000  *
  1089       H         57.21800000  *  155.07000000  * -55.80500000  *
  1090       H         58.58200000  *  154.04400000  * -55.38800000  *
  1091       C         57.19300000  *  153.14600000  * -56.70100000  *
  1092       O         56.13500000  *  152.53500000  * -56.76400000  *
  1093       N         58.11500000  *  153.07200000  * -57.64100000  *
  1094       H         57.83300000  *  152.61700000  * -58.48600000  *
  1095       H         58.88600000  *  153.71500000  * -57.62100000  *
  1096       C         55.33100000  *  153.75800000  * -54.32100000  *
  1097       O         54.57600000  *  152.79900000  * -54.11400000  *
  1098       N         54.88500000  *  154.97100000  * -54.62100000  *
  1099       H         55.52100000  *  155.73600000  * -54.79200000  *
  1100       C         53.46400000  *  155.24700000  * -54.72300000  *
  1101       H         52.92700000  *  154.82600000  * -53.87200000  *
  1102       C         53.20900000  *  156.78000000  * -54.75500000  *
  1103       H         52.16900000  *  156.98000000  * -55.02600000  *
  1104       C         53.47800000  *  157.39700000  * -53.41000000  *
  1105       H         54.52100000  *  157.25500000  * -53.13000000  *
[...]
 1005  H   0.85438
 1006  C   1.06734   0.81493   0.74772   0.79706
 1007  O   1.88317   1.35977   1.53534   1.80501
 1008  N   1.52719   1.33836   1.44774   1.31881
 1009  H   0.66649
 1010  H   0.69335
 1011  C   1.08370   0.76876   0.79262   0.81929
 1012  O   1.88941   1.62015   1.28442   1.71059
 1013  N   1.55261   1.52373   1.20236   1.30488
 1014  H   0.67287
 1015  C   1.07103   0.94323   1.09530   0.81901
 1016  H   0.80150
 1017  C   1.07026   1.05429   1.08984   1.16100
 1018  H   0.83659
 1019  H   0.80626
 1020  C   1.06082   0.81180   0.78014   0.77045
 1021  O   1.88122   1.75289   1.36818   1.58815
 1022  N   1.53316   1.31415   1.19498   1.60272
 1023  H   0.66637
 1024  H   0.65890
 1025  C   1.09043   0.78488   0.71186   0.85320
 1026  O   1.87724   1.77140   1.62459   1.39038
 1027  N   1.54100   1.12661   1.65965   1.18406
 1028  H   0.64987
 1029  C   1.06936   0.96901   0.98257   0.97409
 1030  H   0.81494
 1031  C   1.06727   1.06562   0.99411   1.17573
 1032  H   0.83277
 1033  H   0.84898
 1034  C   1.04098   1.01072   0.95028   1.06002
 1035  H   0.85383
 1036  C   1.04883   1.12531   1.11275   1.17367
 1037  H   0.84849
 1038  H   0.85731
 1039  H   0.86084
 1040  C   1.05134   1.14414   1.16469   1.10177
 1041  H   0.84330
 1042  H   0.86459
 1043  H   0.85157
 1044  C   1.07626   0.75363   0.84241   0.75932
 1045  O   1.87363   1.52703   1.79204   1.43712
 1046  N   1.54593   1.55793   1.17352   1.24991
 1047  H   0.64946
 1048  C   1.06470   0.98537   0.82627   1.10347
 1049  H   0.80888
 1050  C   1.06381   1.02818   1.10609   1.12065
 1051  H   0.85179
 1052  H   0.83960
 1053  C   1.04810   0.96770   1.06334   0.97787
 1054  H   0.86909
 1055  C   1.05362   1.12545   1.13457   1.15669
 1056  H   0.84374
 1057  H   0.86003
 1058  H   0.86295
 1059  C   1.05504   1.18036   1.18138   1.03463
 1060  H   0.83622
 1061  H   0.84961
 1062  H   0.84428
 1063  C   1.07417   0.80022   0.74347   0.81523
 1064  O   1.86692   1.83488   1.63062   1.35051
 1065  N   1.54060   1.19231   1.46143   1.29753
 1066  H   0.64139
 1067  C   1.07627   0.89311   1.00474   1.04037
 1068  H   0.81413
 1069  C   1.06491   1.01354   0.99089   1.02305
 1070  H   0.84062
 1071  C   1.05436   1.18016   1.03681   1.17309
 1072  H   0.84457
 1073  H   0.84623
 1074  H   0.85565
 1075  C   1.05409   1.07393   1.11962   1.02969
 1076  H   0.84520
 1077  H   0.86106
 1078  C   1.05239   1.08519   1.15996   1.13121
 1079  H   0.84632
 1080  H   0.87631
 1081  H   0.84772
 1082  C   1.08673   0.74189   0.88840   0.74233
 1083  O   1.88711   1.56857   1.57633   1.55292
 1084  N   1.54349   1.50753   1.14282   1.34114
 1085  H   0.63940
 1086  C   1.06126   0.99331   0.88735   1.01635
 1087  H   0.80253
 1088  C   1.07089   1.17444   1.11140   1.04285
 1089  H   0.83189
 1090  H   0.81803
 1091  C   1.06793   0.77791   0.79227   0.82221
 1092  O   1.88774   1.30726   1.50605   1.80318
 1093  N   1.53710   1.31262   1.52238   1.27997
 1094  H   0.69295
 1095  H   0.69556
 1096  C   1.08073   0.88471   0.77666   0.74968
 1097  O   1.89433   1.62512   1.43529   1.52772
 1098  N   1.54109   1.14431   1.19542   1.69378
 1099  H   0.67750
 1100  C   1.08523   0.83389   1.03970   1.09520
 1101  H   0.80886
 1102  C   1.08452   0.98604   0.88363   0.88844
 1103  H   0.85792
 1104  C   1.05312   1.18589   1.17273   1.05468
 1105  H   0.83942
 1106  H   0.83201
 1107  H   0.83290
 1108  O   1.85126   1.58205   1.82121   1.32336
 1109  H   0.67504
 1110  C   1.07483   0.81035   0.77002   0.81947
 1111  O   1.88598   1.23158   1.61608   1.81386
 1112  N   1.53442   1.18232   1.58179   1.22151
 1113  H   0.69123
 1114  C   1.05383   1.13268   1.14007   0.88757
 1115  H   0.84113
 1116  H   0.87179
 1117  H   0.83513
 1118  H   0.86779
 1119  C   1.10016   0.76487   0.75359   0.92058
 1120  O   1.88718   1.66996   1.57179   1.45695
 1121  N   1.54653   1.44414   1.35124   1.20825
 1122  H   0.67421
 1123  C   1.08031   0.92944   1.08585   0.92405
 1124  H   0.80978
 1125  C   1.07312   1.07887   0.95441   0.98275
 1126  H   0.84457
 1127  C   1.05753   1.18814   1.08033   1.12360
 1128  H   0.83768
 1129  H   0.85395
 1130  H   0.85849
 1131  C   1.05397   1.07453   1.13498   1.01841
 1132  H   0.85576
 1133  H   0.85282
 1134  C   1.04893   1.14431   1.14762   1.09040
 1135  H   0.85584
 1136  H   0.85932
 1137  H   0.84938
 1138  C   1.07505   0.84253   0.74908   0.79219
 1139  O   1.88226   1.88201   1.48234   1.36305
 1140  N   1.54664   1.09807   1.54204   1.34269
 1141  H   0.63155
 1142  C   1.06854   0.84991   1.04250   1.03923
 1143  H   0.81385
 1144  C   1.05970   1.08883   1.05675   1.08959
 1145  H   0.83280
 1146  H   0.84593
 1147  C   1.05092   1.08862   1.03288   1.08363
 1148  H   0.85885
 1149  H   0.84002
 1150  C   1.06118   1.07583   1.05774   1.09672
 1151  H   0.82437
 1152  H   0.82588
 1153  C   1.08157   1.03068   0.99354   1.07591
 1154  H   0.83589
 1155  H   0.82769
 1156  N   1.46387   1.23163   1.24330   1.25606
 1157  H   0.66601
 1158  H   0.69437
 1159  H   0.73054
 1160  C   1.07952   0.77845   0.75118   0.82875
 1161  O   1.88200   1.76746   1.68868   1.28777
 1162  N   1.54484   1.33072   1.42925   1.22899
 1163  H   0.64228
 1164  C   1.06984   0.91877   0.95605   1.02969
 1165  H   0.83132
 1166  C   1.06261   1.09800   1.02031   1.13379
 1167  H   0.83443
 1168  H   0.84782
 1169  C   1.05388   1.07590   0.96033   0.95831
 1170  H   0.85441
 1171  C   1.06150   1.15499   1.13913   1.09672
 1172  H   0.86235
 1173  H   0.85292
 1174  H   0.84799
 1175  C   1.05712   1.17431   1.13644   1.09481
 1176  H   0.85049
 1177  H   0.85415
 1178  H   0.86032
 1179  C   1.08589   0.79182   0.80012   0.75834
 1180  O   1.88123   1.63257   1.59744   1.53669
 1181  N   1.54404   1.36904   1.43660   1.16195
 1182  H   0.64261
 1183  C   1.06697   0.91558   0.92972   1.04765
 1184  H   0.83228
 1185  C   1.05928   1.16022   1.07759   1.16219
 1186  H   0.81463
 1187  H   0.85348
 1188  H   0.82180
 1189  C   1.08931   0.78626   0.78654   0.74600
 1190  O   1.87429   1.84164   1.35783   1.57679
 1191  N   1.54794   1.17497   1.33033   1.49609
 1192  H   0.68739
 1193  C   1.07567   0.87070   1.07884   0.94093
 1194  H   0.82180
 1195  C   1.08021   1.14437   1.19075   0.99323
 1196  H   0.80963
 1197  H   0.82527
 1198  C   1.07193   0.73911   0.71518   0.70709
 1199  O   1.88704   1.80932   1.48432   1.53535
 1200  O   1.87373   1.65400   1.53960   1.81453
 1201  C   1.09108   0.81978   0.79636   0.74577
 1202  O   1.88745   1.27665   1.81220   1.55943
 1203  N   1.56755   1.29389   1.16848   1.54603
 1204  H   0.67872
 1205  C   1.07927   1.01568   0.91911   0.95391
 1206  H   0.84158
 1207  C   1.05582   1.07981   1.20360   0.95997
 1208  H   0.81437
 1209  H   0.81833
 1210  C   1.07382   0.97117   0.97748   0.97038
 1211  C   1.08856   1.03612   1.04214   1.01386
 1212  H   0.84253
 1213  C   1.08460   0.99243   1.05623   1.01770
 1214  H   0.85958
 1215  C   1.08689   1.05795   0.99246   1.02870
 1216  H   0.84972
 1217  C   1.08967   1.03709   1.03361   0.98379
 1218  H   0.83046
 1219  C   1.08706   0.98506   1.05963   1.01958
 1220  H   0.84183
 1221  C   1.09143   0.80356   0.77357   0.76162
 1222  O   1.88498   1.44660   1.56406   1.71398
 1223  N   1.53993   1.41493   1.43709   1.13663
 1224  H   0.68217
 1225  C   1.06926   0.98083   1.07327   0.98696
 1226  H   0.80631
 1227  H   0.80228
 1228  C   1.08093   0.82939   0.77300   0.69529
 1229  O   1.87551   1.84456   1.33234   1.62352
 1230  N   1.55820   1.29778   1.23643   1.44588
 1231  H   0.66933
 1232  C   1.07762   0.89911   1.03829   0.96487
 1233  H   0.84597
 1234  C   1.06840   1.11314   0.94544   1.17826
 1235  H   0.83343
 1236  H   0.83383
 1237  C   1.05197   1.03028   0.96231   1.01071
 1238  H   0.86112
 1239  C   1.05582   1.16935   1.06516   1.16257
 1240  H   0.85721
 1241  H   0.84099
 1242  H   0.85721
 1243  C   1.05577   1.17288   1.18949   1.04508
 1244  H   0.84469
 1245  H   0.83460
 1246  H   0.86055
 1247  C   1.09757   0.86712   0.77007   0.74296
 1248  O   1.88394   1.31057   1.77557   1.56622
 1249  N   1.58472   1.28170   1.24017   1.52975
 1250  H   0.66424
 1251  C   1.06983   0.96064   0.99058   0.96071
 1252  H   0.82537
 1253  C   1.05736   1.14290   1.09951   1.16304
 1254  H   0.86437
 1255  H   0.81996
 1256  H   0.81232
 1257  C   1.07844   0.84919   0.77018   0.78396
 1258  O   1.89131   1.45601   1.52689   1.62124
 1259  N   1.54614   1.31377   1.54421   1.15302
 1260  H   0.70174
 1261  C   1.06030   0.93043   1.14798   1.09023
 1262  H   0.81688
 1263  H   0.85531
 1264  H   0.84418
 1265  H   0.88483
 1266  C   1.09732   0.75862   0.82377   0.86997
 1267  O   1.89047   1.46977   1.31212   1.86342
 1268  N   1.54400   1.50197   1.35457   1.15135
 1269  H   0.69058
 1270  C   1.07226   1.10697   0.96353   0.82302
 1271  H   0.80375
 1272  C   1.05758   1.09482   1.03355   1.14023
 1273  H   0.84536
 1274  H   0.83347
 1275  C   1.06476   0.97662   0.94827   0.96809
 1276  C   1.08161   1.01297   0.99091   1.05626
 1277  H   0.84715
 1278  C   1.08050   1.03437   1.02448   0.99479
 1279  H   0.85487
 1280  C   1.07841   1.00776   1.05297   1.02443
 1281  H   0.86063
 1282  C   1.07796   1.02528   1.00586   1.04999
 1283  H   0.86355
 1284  C   1.08013   1.06146   1.02639   1.00048
 1285  H   0.84873
 1286  C   1.08299   0.77335   0.80316   0.81753
 1287  O   1.89075   1.50351   1.62925   1.48156
 1288  N   1.53921   1.18081   1.36148   1.44764
 1289  H   0.68148
 1290  C   1.05518   1.13044   0.97645   0.99578
 1291  H   0.83736
 1292  H   0.79718
 1293  C   1.07862   0.79183   0.76124   0.80359
 1294  O   1.88185   1.53513   1.37365   1.83964
 1295  N   1.53689   1.41229   1.37769   1.18574
 1296  H   0.67142
 1297  C   1.07319   1.00494   1.18193   0.89281
 1298  H   0.82196
 1299  H   0.81537
 1300  C   1.07944   0.79700   0.76095   0.81353
 1301  O   1.89027   1.46238   1.49032   1.68763
 1302  N   1.56499   1.46263   1.16774   1.27104
 1303  C   1.06808   1.06397   0.87556   1.05073
 1304  H   0.84672
 1305  H   0.85278
 1306  C   1.05736   1.03802   1.13814   1.06217
 1307  H   0.83758
 1308  H   0.80374
 1309  C   1.05937   1.09179   0.99451   1.15212
 1310  H   0.85777
 1311  H   0.83281
 1312  C   1.07063   1.04492   0.98615   0.88104
 1313  H   0.83322
 1314  C   1.09103   0.79137   0.79479   0.82259
 1315  O   1.89227   1.35905   1.36125   1.85860
 1316  N   1.54605   1.41349   1.50912   1.12668
 1317  H   0.68442
 1318  C   1.07865   1.04453   1.12162   0.88128
 1319  H   0.80266
 1320  H   0.82094
 1321  C   1.08603   0.82895   0.73304   0.78210
 1322  O   1.88605   1.69487   1.71533   1.32079
 1323  N   1.55281   1.23527   1.41526   1.34492
 1324  H   0.68957
 1325  C   1.07642   0.85787   1.06002   0.98277
 1326  H   0.82247
 1327  C   1.05904   1.17698   1.07696   0.96478
 1328  H   0.84765
 1329  H   0.82222
 1330  C   1.05758   1.11784   1.05753   1.05035
 1331  H   0.83362
 1332  H   0.87444
 1333  C   1.06928   1.10893   1.11896   0.74629
 1334  H   0.83597
 1335  H   0.80769
 1336  N   1.53392   1.59314   1.27317   1.10589
 1337  H   0.67032
 1338  C   0.97633   0.84036   0.80652   0.79173
 1339  N   1.49889   1.55640   1.25207   1.24777
 1340  H   0.64601
 1341  H   0.65708
 1342  N   1.50165   1.59029   1.35399   1.14265
 1343  H   0.66382
 1344  H   0.65915
 1345  C   1.08041   0.77732   0.78179   0.84607
 1346  O   1.89144   1.44910   1.63085   1.54524
 1347  N   1.54354   1.55364   1.19540   1.24331
 1348  H   0.68985
 1349  C   1.09117   1.00735   1.01001   0.90966
 1350  H   0.79965
 1351  C   1.08392   0.92117   0.92438   0.88295
 1352  H   0.85346
 1353  C   1.05832   1.10803   1.12710   1.19924
 1354  H   0.82648
 1355  H   0.82779
 1356  H   0.84057
 1357  O   1.84235   1.59451   1.64195   1.56348
 1358  H   0.60895
 1359  C   1.07971   0.81223   0.79627   0.76747
 1360  O   1.88791   1.53112   1.79376   1.36677
 1361  N   1.55438   1.33113   1.29527   1.37728
 1362  H   0.64849
 1363  C   1.07358   0.97550   0.92454   1.00762
 1364  H   0.83179
 1365  C   1.05677   1.09315   1.06722   1.08427
 1366  H   0.85298
 1367  H   0.83688
 1368  C   1.05814   0.96980   0.97362   1.08025
 1369  C   1.08204   0.97584   1.07657   1.00436
 1370  H   0.85106
 1371  C   1.08822   1.08583   0.99693   0.98648
 1372  H   0.79318
 1373  C   1.06864   0.83135   0.89509   0.87289
 1374  O   1.84075   1.46519   1.54575   1.69954
 1375  H   0.60374
 1376  C   1.07173   0.99547   1.09222   1.08111
 1377  H   0.85445
 1378  C   1.07691   1.05320   1.00351   1.02453
 1379  H   0.87634
 1380  C   1.08166   0.79341   0.75864   0.82342
 1381  O   1.88961   1.35944   1.51317   1.81039
 1382  N   1.55294   1.20435   1.61313   1.15024
 1383  H   0.65934
 1384  C   1.08615   1.09466   1.05584   0.83630
 1385  H   0.84998
 1386  C   1.08037   0.85328   0.86864   1.00771
 1387  H   0.87634
 1388  C   1.05616   1.09561   1.13746   1.18922
 1389  H   0.83277
 1390  H   0.85505
 1391  H   0.85275
 1392  O   1.84989   1.30854   1.76161   1.64768
 1393  H   0.59930
 1394  C   1.08828   0.86122   0.77076   0.80807
 1395  O   1.89639   1.23703   1.65235   1.60028
 1396  N   1.54728   1.20477   1.30478   1.51994
 1397  H   0.69410
 1398  C   1.06723   1.01885   1.01422   1.05312
 1399  H   0.88171
 1400  H   0.84482
 1401  C   1.06971   0.85186   0.75658   0.78817
 1402  O   1.89325   1.66751   1.37874   1.51003
 1403  N   1.55721   1.14810   1.53576   1.33798
 1404  H   0.68932
 1405  C   1.07203   0.82312   0.97395   1.14082
 1406  H   0.83249
 1407  C   1.05678   1.16623   1.00979   1.02729
 1408  H   0.84754
 1409  H   0.83084
 1410  C   1.06010   1.20482   0.98214   1.16276
 1411  H   0.83349
 1412  H   0.83483
 1413  C   1.06251   0.73922   0.72264   0.73360
 1414  O   1.89242   1.43235   1.79950   1.60829
 1415  O   1.88382   1.53386   1.58157   1.81721
 1416  C   1.09490   0.76523   0.86747   0.74691
 1417  O   1.88699   1.65385   1.65719   1.40295
 1418  N   1.54803   1.31568   1.19228   1.48976
 1419  H   0.67108
 1420  C   1.07025   1.04654   0.86933   1.02910
 1421  H   0.87160
 1422  C   1.05523   1.03117   1.04102   0.95607
 1423  H   0.82507
 1424  C   1.05491   1.16614   1.03670   1.20495
 1425  H   0.86103
 1426  H   0.84200
 1427  H   0.82119
 1428  C   1.05352   1.16794   1.15517   1.07883
 1429  H   0.85315
 1430  H   0.83984
 1431  H   0.87277
 1432  C   1.07382   0.79232   0.74873   0.84335
 1433  O   1.88969   1.32251   1.58726   1.74407
 1434  N   1.53879   1.27319   1.49306   1.21310
 1435  H   0.68158
 1436  C   1.07442   1.00929   1.04587   0.86611
 1437  H   0.84282
 1438  C   1.06137   1.03026   1.01672   0.98009
 1439  H   0.83866
 1440  C   1.05313   1.18238   1.10082   1.10935
 1441  H   0.83361
 1442  H   0.84902
 1443  H   0.86533
 1444  C   1.05651   1.19179   1.16278   1.04334
 1445  H   0.86048
 1446  H   0.83714
 1447  H   0.83032
 1448  C   1.08292   0.80951   0.79868   0.76218
 1449  O   1.88748   1.79480   1.44259   1.43263
 1450  N   1.53612   1.24357   1.43834   1.31511
 1451  H   0.68532
 1452  C   1.07803   0.90305   0.96840   1.14059
 1453  H   0.81621
 1454  C   1.07868   0.93226   0.84229   0.98898
 1455  H   0.87376
 1456  C   1.05580   1.09969   1.13380   1.18172
 1457  H   0.84022
 1458  H   0.82853
 1459  H   0.84532
 1460  O   1.85206   1.45306   1.47078   1.77163
 1461  H   0.66548
 1462  C   1.07521   0.76600   0.82445   0.81390
 1463  O   1.88677   1.45224   1.86776   1.32178
 1464  N   1.53704   1.58454   1.12343   1.28791
 1465  H   0.68734
 1466  C   1.05225   1.16023   0.87599   1.13284
 1467  H   0.82170
 1468  H   0.85351
 1469  H   0.86624
 1470  H   0.86964
 1471  C   1.10167   0.76419   0.81177   0.89546
 1472  O   1.88719   1.42757   1.33470   1.87145
 1473  N   1.55039   1.52605   1.36322   1.14178
 1474  H   0.68725
 1475  C   1.07792   1.09049   1.02970   0.79359
 1476  H   0.81274
 1477  C   1.05937   1.13174   1.00670   1.09916
 1478  H   0.81534
 1479  H   0.82642
 1480  C   1.06836   0.97629   0.98723   0.99775
 1481  C   1.08108   0.99047   1.01956   1.00397
 1482  H   0.84546
 1483  C   1.07574   1.10241   1.04744   1.06478
 1484  H   0.82525
 1485  C   1.07247   0.88865   0.88827   0.88313
 1486  O   1.84176   1.33091   1.60088   1.72841
 1487  H   0.65403
 1488  C   1.07526   0.98861   1.10184   1.09838
 1489  H   0.83467
 1490  C   1.08716   1.07416   0.98141   0.97212
 1491  H   0.84080
 1492  C   1.08199   0.80327   0.78091   0.81053
 1493  O   1.89299   1.77871   1.64256   1.23657
 1494  N   1.53511   1.26488   1.54071   1.17723
 1495  H   0.69026
 1496  C   1.05806   0.92147   1.08514   1.15576
 1497  H   0.83202
 1498  H   0.85596
 1499  H   0.85028
 1500  H   0.86594
 1501  C   1.10297   0.82978   0.87808   0.75942
 1502  O   1.89043   1.34356   1.83486   1.42348
 1503  N   1.55421   1.37693   1.20570   1.47143
 1504  H   0.69150
 1505  C   1.07914   0.97653   0.84382   1.12478
 1506  H   0.81513
 1507  C   1.05897   0.98045   1.00849   1.06732
 1508  H   0.86930
 1509  C   1.05192   1.15809   1.05409   1.18181
 1510  H   0.83708
 1511  H   0.85308
 1512  H   0.83590
 1513  C   1.04805   1.00403   1.12235   1.09028
 1514  H   0.86274
 1515  H   0.86411
 1516  C   1.04891   1.11928   1.13508   1.13911
 1517  H   0.85392
 1518  H   0.85504
 1519  H   0.85412
 1520  C   1.07242   0.86794   0.76270   0.76281
 1521  O   1.88564   1.53002   1.48963   1.60567
 1522  N   1.54256   1.16437   1.44798   1.40499
 1523  H   0.70091
 1524  C   1.06816   0.88839   1.14590   1.09858
 1525  H   0.85018
 1526  H   0.86148
 1527  H   0.82835
 1528  H   0.86141
 1529  C   1.10310   0.85216   0.75657   0.84819
 1530  O   1.89239   1.78035   1.57476   1.31070
 1531  N   1.53868   1.27058   1.41793   1.30154
 1532  H   0.68190
 1533  C   1.05774   0.88013   1.04658   1.01938
 1534  H   0.82193
 1535  C   1.06046   1.03581   1.11742   1.10567
 1536  H   0.84108
 1537  H   0.84457
 1538  C   1.04475   0.99079   0.96512   1.06050
 1539  H   0.87893
 1540  C   1.05428   1.16060   1.06610   1.18100
 1541  H   0.84397
 1542  H   0.84593
 1543  H   0.85118
 1544  C   1.05252   1.12462   1.16992   1.10942
 1545  H   0.85982
 1546  H   0.84641
 1547  H   0.84043
 1548  C   1.08027   0.74505   0.87788   0.77735
 1549  O   1.88741   1.52381   1.42217   1.71266
 1550  N   1.54037   1.59660   1.20238   1.20258
 1551  H   0.67691
 1552  C   1.06910   1.04529   0.93959   0.93084
 1553  H   0.81873
 1554  C   1.05607   1.16711   1.05678   1.01576
 1555  H   0.83481
 1556  H   0.83403
 1557  C   1.05729   1.12796   1.10611   1.02213
 1558  H   0.84091
 1559  H   0.82395
 1560  C   1.06747   1.16658   0.93348   0.90786
 1561  H   0.81886
 1562  H   0.84036
 1563  N   1.52347   1.14351   1.42230   1.39730
 1564  H   0.66662
 1565  C   0.99031   0.79735   0.80771   0.81380
 1566  N   1.51457   1.10707   1.46268   1.48462
 1567  H   0.64526
 1568  H   0.66009
 1569  N   1.50481   1.23326   1.41602   1.42875
 1570  H   0.65951
 1571  H   0.65747
 1572  C   1.07520   0.86252   0.78998   0.77496
 1573  O   1.88862   1.59549   1.59648   1.52574
 1574  N   1.53734   1.18976   1.25214   1.49134
 1575  H   0.67746
 1576  C   1.08140   0.82414   1.13584   1.04205
 1577  H   0.82566
 1578  C   1.05993   1.15943   1.08162   0.99914
 1579  H   0.84413
 1580  H   0.84810
 1581  C   1.04872   1.08013   0.97225   0.94612
 1582  H   0.87054
 1583  C   1.05528   1.15828   1.15756   1.09180
 1584  H   0.86859
 1585  H   0.86622
 1586  H   0.85362
 1587  C   1.05661   1.16209   1.09244   1.15433
 1588  H   0.84554
 1589  H   0.86929
 1590  H   0.84418
 1591  C   1.07455   0.75948   0.76289   0.73210
 1592  O   1.88878   1.43163   1.84352   1.57833
 1593  O   1.89198   1.52754   1.54882   1.77923

 **********************
 *                    *
 * JOB ENDED NORMALLY *
 *                    *
 **********************



 TOTAL JOB TIME:          2342.66 SECONDS

 == MOPAC DONE ==
