 *******************************************************************************
 **                                                                           **
 **                              MOPAC v23.2.2                                **
 **                                                                           **
 *******************************************************************************
 **          Digital Object Identifier (DOI): 10.5281/zenodo.6511958          **
 **    Visit the DOI location for information on how to cite this program.    **
 *******************************************************************************

                              PM7 CALCULATION RESULTS

 *******************************************************************************
 *  CALCULATION DONE: (MAX THREADS = 24)             Wed Mar 18 14:16:54 2026  *
 *  PM7        - The PM7 Hamiltonian to be used
 *
 *
 *
 *                 CHARGE ON SYSTEM = 0
 *
 *
 *
 *  EPS=78.4   - USE ANDREAS KLAMT'S COSMO IMPLICIT SOLVATION MODEL
 *  T=         - A TIME OF 172800.0 SECONDS REQUESTED
 *  DUMP=N     - RESTART FILE WRITTEN EVERY 7200.0 SECONDS REQUESTED
 *******************************************************************************
PM7 CHARGE=0 EPS=78.4


   ATOM   CHEMICAL          X               Y               Z
  NUMBER   SYMBOL      (ANGSTROMS)     (ANGSTROMS)     (ANGSTROMS)

     1       N         -1.14500000  *  -0.28620000  *  -1.51560000  *
     2       N         -1.78750000  *   0.74520000  *   0.55030000  *
     3       N         -0.07760000  *  -1.13570000  *  -3.38520000  *
     4       N         -7.97520000  *  -1.31550000  *   1.07300000  *
     5       N          7.20320000  *   0.96540000  *   2.40380000  *
     6       C          1.17570000  *  -0.06160000  *  -1.61850000  *
     7       C          0.01240000  *  -0.50450000  *  -2.20530000  *
     8       C         -0.89950000  *   0.35560000  *  -0.39590000  *
     9       C         -3.19200000  *   0.65170000  *   0.55020000  *
    10       C          2.52240000  *  -0.12440000  *  -2.14440000  *
    11       C          3.69420000  *  -0.19090000  *  -1.22860000  *
    12       C         -3.88290000  *   1.02770000  *   1.71800000  *
    13       C         -5.27610000  *   0.93820000  *   1.80550000  *
    14       C         -5.99850000  *   0.45630000  *   0.71620000  *
    15       C         -5.34320000  *   0.08200000  *  -0.45590000  *
    16       C         -3.94840000  *   0.17270000  *  -0.52790000  *
    17       C          4.83210000  *   0.56820000  *  -1.53900000  *
    18       C          5.95950000  *   0.50980000  *  -0.71720000  *
    19       C          5.94550000  *  -0.31460000  *   0.41250000  *
    20       C          4.82810000  *  -1.09960000  *   0.71310000  *
    21       C          3.70180000  *  -1.04030000  *  -0.11230000  *
    22       O          2.76830000  *  -0.13280000  *  -3.35150000  *
    23       O         -8.30510000  *   0.64660000  *  -0.50030000  *
    24       O         -8.21320000  *   0.98360000  *   2.00950000  *
    25       O          7.25160000  *  -1.52740000  *   2.33150000  *
    26       O          8.55190000  *  -0.20380000  *   0.60420000  *
    27       S          0.77760000  *   0.71130000  *  -0.14190000  *
    28       S         -7.76390000  *   0.33290000  *   0.79980000  *
    29       S          7.39200000  *  -0.40040000  *   1.43880000  *
    30       H         -1.40580000  *   1.23360000  *   1.34990000  *
    31       H          0.67790000  *  -1.02450000  *  -4.06150000  *
    32       H         -0.99410000  *  -1.17120000  *  -3.81960000  *
    33       H         -7.11780000  *  -1.85620000  *   0.96540000  *
    34       H         -8.39770000  *  -1.44630000  *   1.99360000  *
    35       H          6.45140000  *   1.58240000  *   2.10170000  *
    36       H          7.09590000  *   0.67240000  *   3.37660000  *
    37       H         -3.33650000  *   1.39990000  *   2.58220000  *
    38       H         -5.77920000  *   1.24670000  *   2.71930000  *
    39       H         -5.90310000  *  -0.27530000  *  -1.31830000  *
    40       H         -3.47150000  *  -0.12780000  *  -1.45690000  *
    41       H          4.84570000  *   1.19610000  *  -2.42890000  *
    42       H          6.84480000  *   1.09110000  *  -0.97100000  *
    43       H          4.83170000  *  -1.77020000  *   1.57080000  *
    44       H          2.84970000  *  -1.67960000  *   0.11000000  *



          CARTESIAN COORDINATES 

    NO.       ATOM           X           Y           Z

     1         N         -1.1450     -0.2862     -1.5156
     2         N         -1.7875      0.7452      0.5503
     3         N         -0.0776     -1.1357     -3.3852
     4         N         -7.9752     -1.3155      1.0730
     5         N          7.2032      0.9654      2.4038
     6         C          1.1757     -0.0616     -1.6185
     7         C          0.0124     -0.5045     -2.2053
     8         C         -0.8995      0.3556     -0.3959
     9         C         -3.1920      0.6517      0.5502
    10         C          2.5224     -0.1244     -2.1444
    11         C          3.6942     -0.1909     -1.2286
    12         C         -3.8829      1.0277      1.7180
    13         C         -5.2761      0.9382      1.8055
    14         C         -5.9985      0.4563      0.7162
    15         C         -5.3432      0.0820     -0.4559
    16         C         -3.9484      0.1727     -0.5279
    17         C          4.8321      0.5682     -1.5390
    18         C          5.9595      0.5098     -0.7172
    19         C          5.9455     -0.3146      0.4125
    20         C          4.8281     -1.0996      0.7131
    21         C          3.7018     -1.0403     -0.1123
    22         O          2.7683     -0.1328     -3.3515
    23         O         -8.3051      0.6466     -0.5003
    24         O         -8.2132      0.9836      2.0095
    25         O          7.2516     -1.5274      2.3315
    26         O          8.5519     -0.2038      0.6042
    27         S          0.7776      0.7113     -0.1419
    28         S         -7.7639      0.3329      0.7998
    29         S          7.3920     -0.4004      1.4388
    30         H         -1.4058      1.2336      1.3499
    31         H          0.6779     -1.0245     -4.0615
    32         H         -0.9941     -1.1712     -3.8196
    33         H         -7.1178     -1.8562      0.9654
    34         H         -8.3977     -1.4463      1.9936
    35         H          6.4514      1.5824      2.1017
    36         H          7.0959      0.6724      3.3766
    37         H         -3.3365      1.3999      2.5822
    38         H         -5.7792      1.2467      2.7193
    39         H         -5.9031     -0.2753     -1.3183
    40         H         -3.4715     -0.1278     -1.4569
    41         H          4.8457      1.1961     -2.4289
    42         H          6.8448      1.0911     -0.9710
    43         H          4.8317     -1.7702      1.5708
    44         H          2.8497     -1.6796      0.1100

 General Reference for PM7:
 "Optimization of Parameters for Semiempirical Methods VI: More Modifications to the 
 NDDO Approximations and Re-optimization of Parameters", J. J. P. Stewart, J. Mol. Mod., 1:32, 19 (2013)
 https://link.springer.com/article/10.1007/s00894-012-1667-x

           Empirical Formula: C16 H15 N5 O5 S3  =    44 atoms



      MOLECULAR POINT GROUP   :   C1  


      RHF CALCULATION, NO. OF DOUBLY OCCUPIED LEVELS = 76


          Geometry optimization using L-BFGS
 CYCLE:     1 TIME:   0.906 TIME LEFT:  2.00D  GRAD.:   162.811 HEAT: -137.2074
 CYCLE:     2 TIME:   0.055 TIME LEFT:  2.00D  GRAD.:   160.131 HEAT: -137.4722
 CYCLE:     3 TIME:   0.066 TIME LEFT:  2.00D  GRAD.:    49.941 HEAT: -147.6098
 CYCLE:     4 TIME:   0.062 TIME LEFT:  2.00D  GRAD.:   160.214 HEAT: -137.4724
 CYCLE:     5 TIME:   0.059 TIME LEFT:  2.00D  GRAD.:    49.970 HEAT: -147.6098
 CYCLE:     6 TIME:   0.051 TIME LEFT:  2.00D  GRAD.:    45.072 HEAT: -149.0820
 CYCLE:     7 TIME:   0.047 TIME LEFT:  2.00D  GRAD.:    37.633 HEAT: -150.3053
 CYCLE:     8 TIME:   0.051 TIME LEFT:  2.00D  GRAD.:    70.320 HEAT: -151.5614
 CYCLE:     9 TIME:   0.051 TIME LEFT:  2.00D  GRAD.:    26.811 HEAT: -152.6413
 CYCLE:    10 TIME:   0.047 TIME LEFT:  2.00D  GRAD.:    18.579 HEAT: -152.9400
 CYCLE:    11 TIME:   0.047 TIME LEFT:  2.00D  GRAD.:    14.912 HEAT: -153.3907
 CYCLE:    12 TIME:   0.047 TIME LEFT:  2.00D  GRAD.:    26.513 HEAT: -153.6811
 CYCLE:    13 TIME:   0.051 TIME LEFT:  2.00D  GRAD.:    15.675 HEAT: -154.2011
 CYCLE:    14 TIME:   0.047 TIME LEFT:  2.00D  GRAD.:    13.059 HEAT: -154.3108
 CYCLE:    15 TIME:   0.051 TIME LEFT:  2.00D  GRAD.:    16.878 HEAT: -154.3633
 CYCLE:    16 TIME:   0.051 TIME LEFT:  2.00D  GRAD.:    20.398 HEAT: -154.4524
 CYCLE:    17 TIME:   0.047 TIME LEFT:  2.00D  GRAD.:    10.842 HEAT: -154.5857
 CYCLE:    18 TIME:   0.051 TIME LEFT:  2.00D  GRAD.:     8.127 HEAT: -154.6948
 CYCLE:    19 TIME:   0.043 TIME LEFT:  2.00D  GRAD.:     9.610 HEAT: -154.8784
 CYCLE:    20 TIME:   0.051 TIME LEFT:  2.00D  GRAD.:     9.244 HEAT: -154.9666
 CYCLE:    21 TIME:   0.051 TIME LEFT:  2.00D  GRAD.:    22.047 HEAT: -154.9852
 CYCLE:    22 TIME:   0.047 TIME LEFT:  2.00D  GRAD.:     9.336 HEAT: -155.1732
 CYCLE:    23 TIME:   0.047 TIME LEFT:  2.00D  GRAD.:     7.461 HEAT: -155.2482
 CYCLE:    24 TIME:   0.051 TIME LEFT:  2.00D  GRAD.:     9.025 HEAT: -155.3197
 CYCLE:    25 TIME:   0.051 TIME LEFT:  2.00D  GRAD.:    25.235 HEAT: -155.2854
 CYCLE:    26 TIME:   0.047 TIME LEFT:  2.00D  GRAD.:     8.170 HEAT: -155.3821
 CYCLE:    27 TIME:   0.043 TIME LEFT:  2.00D  GRAD.:     5.348 HEAT: -155.4225
 CYCLE:    28 TIME:   0.047 TIME LEFT:  2.00D  GRAD.:     7.065 HEAT: -155.4292
 CYCLE:    29 TIME:   0.051 TIME LEFT:  2.00D  GRAD.:     9.978 HEAT: -155.5463
 CYCLE:    30 TIME:   0.047 TIME LEFT:  2.00D  GRAD.:    10.668 HEAT: -155.6176
 CYCLE:    31 TIME:   0.047 TIME LEFT:  2.00D  GRAD.:     5.245 HEAT: -155.6599
 CYCLE:    32 TIME:   0.047 TIME LEFT:  2.00D  GRAD.:     6.187 HEAT: -155.7036
 CYCLE:    33 TIME:   0.047 TIME LEFT:  2.00D  GRAD.:     7.922 HEAT: -155.7701
 CYCLE:    34 TIME:   0.047 TIME LEFT:  2.00D  GRAD.:    10.779 HEAT: -155.8334
 CYCLE:    35 TIME:   0.051 TIME LEFT:  2.00D  GRAD.:     8.841 HEAT: -155.9415
 CYCLE:    36 TIME:   0.047 TIME LEFT:  2.00D  GRAD.:     6.599 HEAT: -155.9842
 CYCLE:    37 TIME:   0.043 TIME LEFT:  2.00D  GRAD.:     7.496 HEAT: -156.0534
 CYCLE:    38 TIME:   0.047 TIME LEFT:  2.00D  GRAD.:     9.877 HEAT: -156.1201
 CYCLE:    39 TIME:   0.051 TIME LEFT:  2.00D  GRAD.:    11.970 HEAT: -156.1645
 CYCLE:    40 TIME:   0.047 TIME LEFT:  2.00D  GRAD.:     7.385 HEAT: -156.2354
 CYCLE:    41 TIME:   0.043 TIME LEFT:  2.00D  GRAD.:     6.707 HEAT: -156.1757
 CYCLE:    42 TIME:   0.047 TIME LEFT:  2.00D  GRAD.:     6.535 HEAT: -156.4217
 CYCLE:    43 TIME:   0.047 TIME LEFT:  2.00D  GRAD.:     7.581 HEAT: -156.4338
 CYCLE:    44 TIME:   0.047 TIME LEFT:  2.00D  GRAD.:    12.422 HEAT: -156.2971
 CYCLE:    45 TIME:   0.051 TIME LEFT:  2.00D  GRAD.:     8.757 HEAT: -156.3036
 CYCLE:    46 TIME:   0.047 TIME LEFT:  2.00D  GRAD.:     8.728 HEAT: -156.3471
 CYCLE:    47 TIME:   0.055 TIME LEFT:  2.00D  GRAD.:    11.583 HEAT: -156.5827
 CYCLE:    48 TIME:   0.051 TIME LEFT:  2.00D  GRAD.:    17.381 HEAT: -156.6587
 CYCLE:    49 TIME:   0.047 TIME LEFT:  2.00D  GRAD.:     8.520 HEAT: -156.7143
 CYCLE:    50 TIME:   0.051 TIME LEFT:  2.00D  GRAD.:     7.698 HEAT: -156.8434
 CYCLE:    51 TIME:   0.047 TIME LEFT:  2.00D  GRAD.:     7.663 HEAT: -156.8378
 CYCLE:    52 TIME:   0.047 TIME LEFT:  2.00D  GRAD.:    19.045 HEAT: -157.0962
 CYCLE:    53 TIME:   0.047 TIME LEFT:  2.00D  GRAD.:     6.941 HEAT: -157.1698
 CYCLE:    54 TIME:   0.043 TIME LEFT:  2.00D  GRAD.:     6.256 HEAT: -157.2072
 CYCLE:    55 TIME:   0.051 TIME LEFT:  2.00D  GRAD.:     8.062 HEAT: -157.2386
 CYCLE:    56 TIME:   0.047 TIME LEFT:  2.00D  GRAD.:    10.950 HEAT: -157.3887
 CYCLE:    57 TIME:   0.051 TIME LEFT:  2.00D  GRAD.:    14.519 HEAT: -157.3672
 CYCLE:    58 TIME:   0.051 TIME LEFT:  2.00D  GRAD.:     8.880 HEAT: -157.4493
 CYCLE:    59 TIME:   0.051 TIME LEFT:  2.00D  GRAD.:    11.914 HEAT: -157.4466
 CYCLE:    60 TIME:   0.043 TIME LEFT:  2.00D  GRAD.:     8.863 HEAT: -157.5217
 CYCLE:    61 TIME:   0.051 TIME LEFT:  2.00D  GRAD.:     9.962 HEAT: -157.1212
 CYCLE:    62 TIME:   0.047 TIME LEFT:  2.00D  GRAD.:    14.508 HEAT: -157.1287
 CYCLE:    63 TIME:   0.047 TIME LEFT:  2.00D  GRAD.:    12.317 HEAT: -157.2776
 CYCLE:    64 TIME:   0.051 TIME LEFT:  2.00D  GRAD.:    10.008 HEAT: -157.4317
 CYCLE:    65 TIME:   0.051 TIME LEFT:  2.00D  GRAD.:    17.159 HEAT: -157.4388
 CYCLE:    66 TIME:   0.047 TIME LEFT:  2.00D  GRAD.:    15.459 HEAT: -157.6125
 CYCLE:    67 TIME:   0.043 TIME LEFT:  2.00D  GRAD.:    10.541 HEAT: -157.8312
 CYCLE:    68 TIME:   0.051 TIME LEFT:  2.00D  GRAD.:     9.341 HEAT: -157.9457
 CYCLE:    69 TIME:   0.047 TIME LEFT:  2.00D  GRAD.:    14.797 HEAT: -157.8766
 CYCLE:    70 TIME:   0.047 TIME LEFT:  2.00D  GRAD.:    31.389 HEAT: -157.8231
 CYCLE:    71 TIME:   0.047 TIME LEFT:  2.00D  GRAD.:    10.932 HEAT: -158.0000
 CYCLE:    72 TIME:   0.047 TIME LEFT:  2.00D  GRAD.:     7.864 HEAT: -158.0830
 CYCLE:    73 TIME:   0.047 TIME LEFT:  2.00D  GRAD.:    10.926 HEAT: -158.1467
 CYCLE:    74 TIME:   0.047 TIME LEFT:  2.00D  GRAD.:    16.191 HEAT: -157.8324
 CYCLE:    75 TIME:   0.047 TIME LEFT:  2.00D  GRAD.:    24.500 HEAT: -157.9382
 CYCLE:    76 TIME:   0.047 TIME LEFT:  2.00D  GRAD.:    10.899 HEAT: -158.1212
 CYCLE:    77 TIME:   0.047 TIME LEFT:  2.00D  GRAD.:     8.706 HEAT: -158.0196
 CYCLE:    78 TIME:   0.047 TIME LEFT:  2.00D  GRAD.:    12.795 HEAT: -158.0866
 CYCLE:    79 TIME:   0.043 TIME LEFT:  2.00D  GRAD.:    15.803 HEAT: -158.2505
 CYCLE:    80 TIME:   0.043 TIME LEFT:  2.00D  GRAD.:     9.568 HEAT: -158.3789
 CYCLE:    81 TIME:   0.047 TIME LEFT:  2.00D  GRAD.:    10.318 HEAT: -158.4653
 CYCLE:    82 TIME:   0.047 TIME LEFT:  2.00D  GRAD.:    15.992 HEAT: -158.3319
 CYCLE:    83 TIME:   0.047 TIME LEFT:  2.00D  GRAD.:    13.524 HEAT: -158.5744
 CYCLE:    84 TIME:   0.047 TIME LEFT:  2.00D  GRAD.:    16.740 HEAT: -158.6782
 CYCLE:    85 TIME:   0.047 TIME LEFT:  2.00D  GRAD.:    16.864 HEAT: -158.7684
 CYCLE:    86 TIME:   0.047 TIME LEFT:  2.00D  GRAD.:    23.079 HEAT: -158.8109
 CYCLE:    87 TIME:   0.047 TIME LEFT:  2.00D  GRAD.:    13.452 HEAT: -158.9091
 CYCLE:    88 TIME:   0.043 TIME LEFT:  2.00D  GRAD.:     6.858 HEAT: -159.0683
 CYCLE:    89 TIME:   0.047 TIME LEFT:  2.00D  GRAD.:     7.437 HEAT: -158.9671
 CYCLE:    90 TIME:   0.047 TIME LEFT:  2.00D  GRAD.:     9.100 HEAT: -159.0145
 CYCLE:    91 TIME:   0.047 TIME LEFT:  2.00D  GRAD.:    30.341 HEAT: -159.1310
 CYCLE:    92 TIME:   0.047 TIME LEFT:  2.00D  GRAD.:     7.728 HEAT: -159.3479
 CYCLE:    93 TIME:   0.043 TIME LEFT:  2.00D  GRAD.:     5.110 HEAT: -159.3620
 CYCLE:    94 TIME:   0.047 TIME LEFT:  2.00D  GRAD.:     9.238 HEAT: -159.3783
 CYCLE:    95 TIME:   0.043 TIME LEFT:  2.00D  GRAD.:     9.863 HEAT: -159.5032
 CYCLE:    96 TIME:   0.047 TIME LEFT:  2.00D  GRAD.:     7.781 HEAT: -159.4891
 CYCLE:    97 TIME:   0.047 TIME LEFT:  2.00D  GRAD.:     9.113 HEAT: -159.4453
 CYCLE:    98 TIME:   0.043 TIME LEFT:  2.00D  GRAD.:    10.732 HEAT: -159.5156
 CYCLE:    99 TIME:   0.047 TIME LEFT:  2.00D  GRAD.:     9.859 HEAT: -159.6099
 CYCLE:   100 TIME:   0.047 TIME LEFT:  2.00D  GRAD.:     5.417 HEAT: -159.5085
 CYCLE:   101 TIME:   0.043 TIME LEFT:  2.00D  GRAD.:     4.734 HEAT: -159.5297
 CYCLE:   102 TIME:   0.047 TIME LEFT:  2.00D  GRAD.:     5.286 HEAT: -159.5989
 CYCLE:   103 TIME:   0.051 TIME LEFT:  2.00D  GRAD.:    10.525 HEAT: -159.7138
 CYCLE:   104 TIME:   0.043 TIME LEFT:  2.00D  GRAD.:     4.214 HEAT: -159.7276
 CYCLE:   105 TIME:   0.043 TIME LEFT:  2.00D  GRAD.:     3.667 HEAT: -159.7457
 CYCLE:   106 TIME:   0.047 TIME LEFT:  2.00D  GRAD.:     5.156 HEAT: -159.7084
 CYCLE:   107 TIME:   0.043 TIME LEFT:  2.00D  GRAD.:     7.038 HEAT: -159.7188
 CYCLE:   108 TIME:   0.047 TIME LEFT:  2.00D  GRAD.:     7.411 HEAT: -159.6482
 CYCLE:   109 TIME:   0.043 TIME LEFT:  2.00D  GRAD.:     6.329 HEAT: -159.6751
 CYCLE:   110 TIME:   0.047 TIME LEFT:  2.00D  GRAD.:     5.098 HEAT: -159.7245
 CYCLE:   111 TIME:   0.047 TIME LEFT:  2.00D  GRAD.:     5.979 HEAT: -159.7880
 CYCLE:   112 TIME:   0.043 TIME LEFT:  2.00D  GRAD.:     7.489 HEAT: -159.7832
 CYCLE:   113 TIME:   0.047 TIME LEFT:  2.00D  GRAD.:    10.762 HEAT: -159.8280
 CYCLE:   114 TIME:   0.047 TIME LEFT:  2.00D  GRAD.:     4.547 HEAT: -159.8556
 CYCLE:   115 TIME:   0.043 TIME LEFT:  2.00D  GRAD.:     3.966 HEAT: -159.8156
 CYCLE:   116 TIME:   0.043 TIME LEFT:  2.00D  GRAD.:     4.624 HEAT: -159.8509
 CYCLE:   117 TIME:   0.051 TIME LEFT:  2.00D  GRAD.:    12.005 HEAT: -159.9262
 CYCLE:   118 TIME:   0.043 TIME LEFT:  2.00D  GRAD.:     3.860 HEAT: -159.9377
 CYCLE:   119 TIME:   0.043 TIME LEFT:  2.00D  GRAD.:     3.214 HEAT: -159.9316
 CYCLE:   120 TIME:   0.047 TIME LEFT:  2.00D  GRAD.:     4.078 HEAT: -159.9319
 CYCLE:   121 TIME:   0.043 TIME LEFT:  2.00D  GRAD.:     7.812 HEAT: -159.9807
 CYCLE:   122 TIME:   0.051 TIME LEFT:  2.00D  GRAD.:     4.062 HEAT: -160.0095
 CYCLE:   123 TIME:   0.047 TIME LEFT:  2.00D  GRAD.:     3.467 HEAT: -160.0103
 CYCLE:   124 TIME:   0.043 TIME LEFT:  2.00D  GRAD.:     3.891 HEAT: -159.9880
 CYCLE:   125 TIME:   0.047 TIME LEFT:  2.00D  GRAD.:     6.417 HEAT: -159.9958
 CYCLE:   126 TIME:   0.043 TIME LEFT:  2.00D  GRAD.:     3.675 HEAT: -159.9495
 CYCLE:   127 TIME:   0.043 TIME LEFT:  2.00D  GRAD.:     3.161 HEAT: -159.9661
 CYCLE:   128 TIME:   0.047 TIME LEFT:  2.00D  GRAD.:     3.687 HEAT: -159.9353
 CYCLE:   129 TIME:   0.043 TIME LEFT:  2.00D  GRAD.:     4.119 HEAT: -160.0133
 CYCLE:   130 TIME:   0.047 TIME LEFT:  2.00D  GRAD.:     2.542 HEAT: -160.0148
 CYCLE:   131 TIME:   0.043 TIME LEFT:  2.00D  GRAD.:     2.668 HEAT: -159.9922
 CYCLE:   132 TIME:   0.043 TIME LEFT:  2.00D  GRAD.:     3.363 HEAT: -160.0503
 CYCLE:   133 TIME:   0.047 TIME LEFT:  2.00D  GRAD.:     2.974 HEAT: -160.0763
 CYCLE:   134 TIME:   0.043 TIME LEFT:  2.00D  GRAD.:     2.666 HEAT: -160.1176
 CYCLE:   135 TIME:   0.043 TIME LEFT:  2.00D  GRAD.:     2.299 HEAT: -160.1371
 CYCLE:   136 TIME:   0.043 TIME LEFT:  2.00D  GRAD.:     2.905 HEAT: -160.1292
 CYCLE:   137 TIME:   0.047 TIME LEFT:  2.00D  GRAD.:     3.096 HEAT: -160.1371
 CYCLE:   138 TIME:   0.043 TIME LEFT:  2.00D  GRAD.:     1.793 HEAT: -160.1416
 CYCLE:   139 TIME:   0.043 TIME LEFT:  2.00D  GRAD.:     2.005 HEAT: -160.1479
 CYCLE:   140 TIME:   0.047 TIME LEFT:  2.00D  GRAD.:     2.610 HEAT: -160.1725
 CYCLE:   141 TIME:   0.043 TIME LEFT:  2.00D  GRAD.:     3.556 HEAT: -160.2834
 CYCLE:   142 TIME:   0.047 TIME LEFT:  2.00D  GRAD.:     2.611 HEAT: -160.2882
 CYCLE:   143 TIME:   0.043 TIME LEFT:  2.00D  GRAD.:     2.359 HEAT: -160.3162
 CYCLE:   144 TIME:   0.047 TIME LEFT:  2.00D  GRAD.:     3.158 HEAT: -160.3264
 CYCLE:   145 TIME:   0.043 TIME LEFT:  2.00D  GRAD.:     4.267 HEAT: -160.3558
 CYCLE:   146 TIME:   0.047 TIME LEFT:  2.00D  GRAD.:     2.251 HEAT: -160.3623
 CYCLE:   147 TIME:   0.043 TIME LEFT:  2.00D  GRAD.:     1.697 HEAT: -160.3297
 CYCLE:   148 TIME:   0.047 TIME LEFT:  2.00D  GRAD.:     2.055 HEAT: -160.3316
 CYCLE:   149 TIME:   0.047 TIME LEFT:  2.00D  GRAD.:     3.066 HEAT: -160.3643
 CYCLE:   150 TIME:   0.043 TIME LEFT:  2.00D  GRAD.:     1.731 HEAT: -160.3670
 CYCLE:   151 TIME:   0.047 TIME LEFT:  2.00D  GRAD.:     1.727 HEAT: -160.3787
 CYCLE:   152 TIME:   0.047 TIME LEFT:  2.00D  GRAD.:     2.629 HEAT: -160.3599
 CYCLE:   153 TIME:   0.043 TIME LEFT:  2.00D  GRAD.:     2.517 HEAT: -160.3704
 CYCLE:   154 TIME:   0.043 TIME LEFT:  2.00D  GRAD.:     2.061 HEAT: -160.3747
 CYCLE:   155 TIME:   0.047 TIME LEFT:  2.00D  GRAD.:     2.806 HEAT: -160.3577
 CYCLE:   156 TIME:   0.047 TIME LEFT:  2.00D  GRAD.:     3.424 HEAT: -160.3590
 CYCLE:   157 TIME:   0.043 TIME LEFT:  2.00D  GRAD.:     2.340 HEAT: -160.3582
 CYCLE:   158 TIME:   0.055 TIME LEFT:  2.00D  GRAD.:     2.137 HEAT: -160.3860
 CYCLE:   159 TIME:   0.047 TIME LEFT:  2.00D  GRAD.:     2.813 HEAT: -160.3780
 CYCLE:   160 TIME:   0.043 TIME LEFT:  2.00D  GRAD.:     2.266 HEAT: -160.3795
 CYCLE:   161 TIME:   0.047 TIME LEFT:  2.00D  GRAD.:     2.270 HEAT: -160.4177
 CYCLE:   162 TIME:   0.043 TIME LEFT:  2.00D  GRAD.:     3.297 HEAT: -160.4719
 CYCLE:   163 TIME:   0.043 TIME LEFT:  2.00D  GRAD.:     2.034 HEAT: -160.4706
 CYCLE:   164 TIME:   0.043 TIME LEFT:  2.00D  GRAD.:     1.598 HEAT: -160.4596
 CYCLE:   165 TIME:   0.047 TIME LEFT:  2.00D  GRAD.:     2.161 HEAT: -160.4489
 CYCLE:   166 TIME:   0.047 TIME LEFT:  2.00D  GRAD.:     2.433 HEAT: -160.4418
 CYCLE:   167 TIME:   0.047 TIME LEFT:  2.00D  GRAD.:     2.783 HEAT: -160.4313
 CYCLE:   168 TIME:   0.047 TIME LEFT:  2.00D  GRAD.:     3.078 HEAT: -160.4150
 CYCLE:   169 TIME:   0.047 TIME LEFT:  2.00D  GRAD.:     3.722 HEAT: -160.4019
 CYCLE:   170 TIME:   0.047 TIME LEFT:  2.00D  GRAD.:     4.800 HEAT: -160.4319
 CYCLE:   171 TIME:   0.043 TIME LEFT:  2.00D  GRAD.:     6.256 HEAT: -160.5664
 CYCLE:   172 TIME:   0.047 TIME LEFT:  2.00D  GRAD.:     4.330 HEAT: -160.5366
 CYCLE:   173 TIME:   0.047 TIME LEFT:  2.00D  GRAD.:     3.518 HEAT: -160.6226
 CYCLE:   174 TIME:   0.043 TIME LEFT:  2.00D  GRAD.:     3.491 HEAT: -160.4351
 CYCLE:   175 TIME:   0.043 TIME LEFT:  2.00D  GRAD.:     2.649 HEAT: -160.5721
 CYCLE:   176 TIME:   0.047 TIME LEFT:  2.00D  GRAD.:     3.641 HEAT: -160.4437
 CYCLE:   177 TIME:   0.043 TIME LEFT:  2.00D  GRAD.:     1.783 HEAT: -160.4699
 CYCLE:   178 TIME:   0.047 TIME LEFT:  2.00D  GRAD.:     2.230 HEAT: -160.4865
 CYCLE:   179 TIME:   0.047 TIME LEFT:  2.00D  GRAD.:     3.575 HEAT: -160.4870
 CYCLE:   180 TIME:   0.043 TIME LEFT:  2.00D  GRAD.:     2.042 HEAT: -160.4919
 CYCLE:   181 TIME:   0.047 TIME LEFT:  2.00D  GRAD.:     2.190 HEAT: -160.5062
 CYCLE:   182 TIME:   0.047 TIME LEFT:  2.00D  GRAD.:     3.301 HEAT: -160.5485
 CYCLE:   183 TIME:   0.043 TIME LEFT:  2.00D  GRAD.:     1.864 HEAT: -160.5168
 CYCLE:   184 TIME:   0.047 TIME LEFT:  2.00D  GRAD.:     1.789 HEAT: -160.5162
 CYCLE:   185 TIME:   0.047 TIME LEFT:  2.00D  GRAD.:     2.024 HEAT: -160.5170
 CYCLE:   186 TIME:   0.047 TIME LEFT:  2.00D  GRAD.:     2.768 HEAT: -160.5025
 CYCLE:   187 TIME:   0.043 TIME LEFT:  2.00D  GRAD.:     1.530 HEAT: -160.4994
 CYCLE:   188 TIME:   0.047 TIME LEFT:  2.00D  GRAD.:     1.274 HEAT: -160.4957
 CYCLE:   189 TIME:   0.047 TIME LEFT:  2.00D  GRAD.:     1.583 HEAT: -160.5048
 CYCLE:   190 TIME:   0.047 TIME LEFT:  2.00D  GRAD.:     2.427 HEAT: -160.5117
 CYCLE:   191 TIME:   0.043 TIME LEFT:  2.00D  GRAD.:     1.304 HEAT: -160.4975
 CYCLE:   192 TIME:   0.047 TIME LEFT:  2.00D  GRAD.:     1.396 HEAT: -160.5084
 CYCLE:   193 TIME:   0.047 TIME LEFT:  2.00D  GRAD.:     1.496 HEAT: -160.5122
 CYCLE:   194 TIME:   0.047 TIME LEFT:  2.00D  GRAD.:     3.282 HEAT: -160.5030
 CYCLE:   195 TIME:   0.043 TIME LEFT:  2.00D  GRAD.:     2.105 HEAT: -160.5164
 CYCLE:   196 TIME:   0.043 TIME LEFT:  2.00D  GRAD.:     1.464 HEAT: -160.5221
 CYCLE:   197 TIME:   0.047 TIME LEFT:  2.00D  GRAD.:     1.603 HEAT: -160.5301
 CYCLE:   198 TIME:   0.047 TIME LEFT:  2.00D  GRAD.:     3.019 HEAT: -160.5240
 CYCLE:   199 TIME:   0.043 TIME LEFT:  2.00D  GRAD.:     2.260 HEAT: -160.5223
 CYCLE:   200 TIME:   0.047 TIME LEFT:  2.00D  GRAD.:     1.647 HEAT: -160.5429
 CYCLE:   201 TIME:   0.047 TIME LEFT:  2.00D  GRAD.:     2.315 HEAT: -160.5677
 CYCLE:   202 TIME:   0.047 TIME LEFT:  2.00D  GRAD.:     2.796 HEAT: -160.5283
 CYCLE:   203 TIME:   0.047 TIME LEFT:  2.00D  GRAD.:     3.641 HEAT: -160.5867


           HEAT OF FORMATION IS ESSENTIALLY STATIONARY


          CURRENT BEST VALUE OF HEAT OF FORMATION =   -160.623415

 PM7 CHARGE=0 EPS=78.4


  N    -1.17214323 +1  -0.02197395 +1  -1.52861081 +1
  N    -1.70531006 +1   0.82193856 +1   0.65406644 +1
  N    -0.19997679 +1  -0.82459231 +1  -3.51806664 +1
  N    -7.88768550 +1  -1.34837280 +1   0.71402410 +1
  N     7.06034813 +1   1.36806722 +1   2.21067181 +1
  C     1.20639015 +1  -0.25606831 +1  -1.58743623 +1
  C    -0.03268823 +1  -0.38830183 +1  -2.26540747 +1
  C    -0.84881528 +1   0.41645084 +1  -0.30966027 +1
  C    -3.11779758 +1   0.72560363 +1   0.61972232 +1
  C     2.45626968 +1  -0.65397092 +1  -2.10966430 +1
  C     3.65582559 +1  -0.55099684 +1  -1.23034300 +1
  C    -3.77850202 +1   1.06463707 +1   1.81789462 +1
  C    -5.15923423 +1   0.95883871 +1   1.89692602 +1
  C    -5.89762040 +1   0.52045935 +1   0.79407332 +1
  C    -5.24250604 +1   0.21600382 +1  -0.39939825 +1
  C    -3.85697059 +1   0.31477689 +1  -0.49403069 +1
  C     4.55540619 +1   0.49602339 +1  -1.41630805 +1
  C     5.66300703 +1   0.60144867 +1  -0.57813227 +1
  C     5.86204910 +1  -0.33868946 +1   0.43354261 +1
  C     4.97107781 +1  -1.39926028 +1   0.59779649 +1
  C     3.86328320 +1  -1.50888155 +1  -0.24110777 +1
  O     2.59036632 +1  -1.08899046 +1  -3.25091259 +1
  O    -8.26139838 +1   0.99029329 +1  -0.23492752 +1
  O    -8.06039589 +1   0.71657912 +1   2.24956774 +1
  O     7.16176159 +1  -1.18798454 +1   2.54034614 +1
  O     8.45568691 +1  -0.11936082 +1   0.67541402 +1
  S     0.94952991 +1   0.41736104 +1   0.00065538 +1
  S    -7.62022355 +1   0.34128272 +1   0.90821342 +1
  S     7.24244176 +1  -0.18240614 +1   1.48643525 +1
  H    -1.30788806 +1   1.19906577 +1   1.53595142 +1
  H     0.60799300 +1  -1.11122621 +1  -4.06398386 +1
  H    -1.11337507 +1  -0.91667330 +1  -3.94024185 +1
  H    -8.07420746 +1  -1.86943261 +1   1.56837672 +1
  H    -8.59538775 +1  -1.60331624 +1   0.02761098 +1
  H     6.75088838 +1   1.36634584 +1   3.18058945 +1
  H     7.87040683 +1   1.98278671 +1   2.13562377 +1
  H    -3.20870212 +1   1.39813265 +1   2.68807842 +1
  H    -5.65363362 +1   1.22160715 +1   2.84321855 +1
  H    -5.80033743 +1  -0.11136194 +1  -1.28768845 +1
  H    -3.37436717 +1   0.05991649 +1  -1.44032063 +1
  H     4.39839597 +1   1.22938514 +1  -2.20899415 +1
  H     6.36283732 +1   1.43229244 +1  -0.73193740 +1
  H     5.11871411 +1  -2.15663457 +1   1.37879959 +1
  H     3.16590677 +1  -2.34028478 +1  -0.12000160 +1



 -------------------------------------------------------------------------------
 PM7 CHARGE=0 EPS=78.4




     HERBERTS TEST WAS SATISFIED IN BFGS                      
     SCF FIELD WAS ACHIEVED                                   


                              PM7 CALCULATION
                                                       MOPAC v23.2.2 Linux
                                                       Wed Mar 18 14:17:04 2026




          FINAL HEAT OF FORMATION =       -160.62342 KCAL/MOL =    -672.04837 KJ/MOL
          VAN DER WAALS AREA      =        413.47 SQUARE ANGSTROMS



          DIELECTRIC ENERGY       =         -2.60889 EV
          COSMO AREA              =        413.47 SQUARE ANGSTROMS
          COSMO VOLUME            =        464.21 CUBIC ANGSTROMS

          GRADIENT NORM           =          3.51844          =       0.53042 PER ATOM
          IONIZATION POTENTIAL    =          8.805594 EV
          HOMO LUMO ENERGIES (EV) =         -8.806 -1.291
          NO. OF FILLED LEVELS    =         76
          MOLECULAR WEIGHT        =        453.5050         POINT GROUP:  C1  

          MOLECULAR DIMENSIONS (Angstroms)

            Atom       Atom       Distance
            H    34    O    26    17.12778
            H    38    H    31     7.68531
            H    43    H    41     4.51917


          SCF CALCULATIONS        =        206

          WALL-CLOCK TIME         =     10.422 SECONDS
          COMPUTATION TIME        =          4 MINUTES AND 8.484 SECONDS



       FINAL  POINT  AND  DERIVATIVES

   PARAMETER     ATOM    TYPE            VALUE        GRADIENT
      1          1  N    CARTESIAN X    -1.172143     -0.002390  KCAL/ANGSTROM
      2          1  N    CARTESIAN Y    -0.021974     -0.322226  KCAL/ANGSTROM
      3          1  N    CARTESIAN Z    -1.528611     -0.343749  KCAL/ANGSTROM
      4          2  N    CARTESIAN X    -1.705310     -0.619896  KCAL/ANGSTROM
      5          2  N    CARTESIAN Y     0.821939      0.272890  KCAL/ANGSTROM
      6          2  N    CARTESIAN Z     0.654066      0.357708  KCAL/ANGSTROM
      7          3  N    CARTESIAN X    -0.199977     -0.251842  KCAL/ANGSTROM
      8          3  N    CARTESIAN Y    -0.824592     -0.418224  KCAL/ANGSTROM
      9          3  N    CARTESIAN Z    -3.518067     -1.203964  KCAL/ANGSTROM
     10          4  N    CARTESIAN X    -7.887686      0.134666  KCAL/ANGSTROM
     11          4  N    CARTESIAN Y    -1.348373      0.294579  KCAL/ANGSTROM
     12          4  N    CARTESIAN Z     0.714024      0.152134  KCAL/ANGSTROM
     13          5  N    CARTESIAN X     7.060348     -0.025260  KCAL/ANGSTROM
     14          5  N    CARTESIAN Y     1.368067      0.300784  KCAL/ANGSTROM
     15          5  N    CARTESIAN Z     2.210672      0.004935  KCAL/ANGSTROM
     16          6  C    CARTESIAN X     1.206390      0.347589  KCAL/ANGSTROM
     17          6  C    CARTESIAN Y    -0.256068     -0.112629  KCAL/ANGSTROM
     18          6  C    CARTESIAN Z    -1.587436     -0.187619  KCAL/ANGSTROM
     19          7  C    CARTESIAN X    -0.032688      0.251797  KCAL/ANGSTROM
     20          7  C    CARTESIAN Y    -0.388302      0.626793  KCAL/ANGSTROM
     21          7  C    CARTESIAN Z    -2.265407      1.442878  KCAL/ANGSTROM
     22          8  C    CARTESIAN X    -0.848815      0.381533  KCAL/ANGSTROM
     23          8  C    CARTESIAN Y     0.416451      0.012267  KCAL/ANGSTROM
     24          8  C    CARTESIAN Z    -0.309660     -0.143866  KCAL/ANGSTROM
     25          9  C    CARTESIAN X    -3.117798      0.199194  KCAL/ANGSTROM
     26          9  C    CARTESIAN Y     0.725604     -0.003679  KCAL/ANGSTROM
     27          9  C    CARTESIAN Z     0.619722     -0.600694  KCAL/ANGSTROM
     28         10  C    CARTESIAN X     2.456270     -0.494479  KCAL/ANGSTROM
     29         10  C    CARTESIAN Y    -0.653971      0.228797  KCAL/ANGSTROM
     30         10  C    CARTESIAN Z    -2.109664      0.753143  KCAL/ANGSTROM
     31         11  C    CARTESIAN X     3.655826     -0.248859  KCAL/ANGSTROM
     32         11  C    CARTESIAN Y    -0.550997     -0.420129  KCAL/ANGSTROM
     33         11  C    CARTESIAN Z    -1.230343      0.470423  KCAL/ANGSTROM
     34         12  C    CARTESIAN X    -3.778502      0.617349  KCAL/ANGSTROM
     35         12  C    CARTESIAN Y     1.064637      0.209202  KCAL/ANGSTROM
     36         12  C    CARTESIAN Z     1.817895      0.154859  KCAL/ANGSTROM
     37         13  C    CARTESIAN X    -5.159234     -0.606168  KCAL/ANGSTROM
     38         13  C    CARTESIAN Y     0.958839     -0.017476  KCAL/ANGSTROM
     39         13  C    CARTESIAN Z     1.896926     -0.221573  KCAL/ANGSTROM
     40         14  C    CARTESIAN X    -5.897620      0.146209  KCAL/ANGSTROM
     41         14  C    CARTESIAN Y     0.520459      0.225512  KCAL/ANGSTROM
     42         14  C    CARTESIAN Z     0.794073      0.368469  KCAL/ANGSTROM
     43         15  C    CARTESIAN X    -5.242506     -0.336821  KCAL/ANGSTROM
     44         15  C    CARTESIAN Y     0.216004     -0.005639  KCAL/ANGSTROM
     45         15  C    CARTESIAN Z    -0.399398     -0.294400  KCAL/ANGSTROM
     46         16  C    CARTESIAN X    -3.856971      0.422363  KCAL/ANGSTROM
     47         16  C    CARTESIAN Y     0.314777      0.111352  KCAL/ANGSTROM
     48         16  C    CARTESIAN Z    -0.494031      0.092045  KCAL/ANGSTROM
     49         17  C    CARTESIAN X     4.555406      0.372469  KCAL/ANGSTROM
     50         17  C    CARTESIAN Y     0.496023      0.216841  KCAL/ANGSTROM
     51         17  C    CARTESIAN Z    -1.416308      0.096556  KCAL/ANGSTROM
     52         18  C    CARTESIAN X     5.663007     -0.141804  KCAL/ANGSTROM
     53         18  C    CARTESIAN Y     0.601449     -0.331915  KCAL/ANGSTROM
     54         18  C    CARTESIAN Z    -0.578132     -0.090153  KCAL/ANGSTROM
     55         19  C    CARTESIAN X     5.862049      0.220378  KCAL/ANGSTROM
     56         19  C    CARTESIAN Y    -0.338689      0.567393  KCAL/ANGSTROM
     57         19  C    CARTESIAN Z     0.433543     -0.122620  KCAL/ANGSTROM
     58         20  C    CARTESIAN X     4.971078     -0.437635  KCAL/ANGSTROM
     59         20  C    CARTESIAN Y    -1.399260     -0.528910  KCAL/ANGSTROM
     60         20  C    CARTESIAN Z     0.597796     -0.060535  KCAL/ANGSTROM
     61         21  C    CARTESIAN X     3.863283      0.193128  KCAL/ANGSTROM
     62         21  C    CARTESIAN Y    -1.508882      0.170042  KCAL/ANGSTROM
     63         21  C    CARTESIAN Z    -0.241108     -0.086293  KCAL/ANGSTROM
     64         22  O    CARTESIAN X     2.590366     -0.083382  KCAL/ANGSTROM
     65         22  O    CARTESIAN Y    -1.088990     -0.317618  KCAL/ANGSTROM
     66         22  O    CARTESIAN Z    -3.250913     -0.432672  KCAL/ANGSTROM
     67         23  O    CARTESIAN X    -8.261398     -0.084176  KCAL/ANGSTROM
     68         23  O    CARTESIAN Y     0.990293     -0.036073  KCAL/ANGSTROM
     69         23  O    CARTESIAN Z    -0.234928      0.011388  KCAL/ANGSTROM
     70         24  O    CARTESIAN X    -8.060396      0.221619  KCAL/ANGSTROM
     71         24  O    CARTESIAN Y     0.716579     -0.199094  KCAL/ANGSTROM
     72         24  O    CARTESIAN Z     2.249568     -0.156050  KCAL/ANGSTROM
     73         25  O    CARTESIAN X     7.161762     -0.171618  KCAL/ANGSTROM
     74         25  O    CARTESIAN Y    -1.187985     -0.134530  KCAL/ANGSTROM
     75         25  O    CARTESIAN Z     2.540346     -0.113860  KCAL/ANGSTROM
     76         26  O    CARTESIAN X     8.455687     -0.460573  KCAL/ANGSTROM
     77         26  O    CARTESIAN Y    -0.119361     -0.085816  KCAL/ANGSTROM
     78         26  O    CARTESIAN Z     0.675414     -0.026677  KCAL/ANGSTROM
     79         27  S    CARTESIAN X     0.949530      0.099399  KCAL/ANGSTROM
     80         27  S    CARTESIAN Y     0.417361      0.347912  KCAL/ANGSTROM
     81         27  S    CARTESIAN Z     0.000655     -0.041817  KCAL/ANGSTROM
     82         28  S    CARTESIAN X    -7.620224     -0.099127  KCAL/ANGSTROM
     83         28  S    CARTESIAN Y     0.341283      0.153837  KCAL/ANGSTROM
     84         28  S    CARTESIAN Z     0.908213     -0.048945  KCAL/ANGSTROM
     85         29  S    CARTESIAN X     7.242442     -0.002066  KCAL/ANGSTROM
     86         29  S    CARTESIAN Y    -0.182406      0.312785  KCAL/ANGSTROM
     87         29  S    CARTESIAN Z     1.486435     -0.090667  KCAL/ANGSTROM
     88         30  H    CARTESIAN X    -1.307888     -0.087160  KCAL/ANGSTROM
     89         30  H    CARTESIAN Y     1.199066      0.049277  KCAL/ANGSTROM
     90         30  H    CARTESIAN Z     1.535951      0.056892  KCAL/ANGSTROM
     91         31  H    CARTESIAN X     0.607993      0.098878  KCAL/ANGSTROM
     92         31  H    CARTESIAN Y    -1.111226      0.125143  KCAL/ANGSTROM
     93         31  H    CARTESIAN Z    -4.063984      0.010859  KCAL/ANGSTROM
     94         32  H    CARTESIAN X    -1.113375     -0.058087  KCAL/ANGSTROM
     95         32  H    CARTESIAN Y    -0.916673      0.230997  KCAL/ANGSTROM
     96         32  H    CARTESIAN Z    -3.940242      0.142740  KCAL/ANGSTROM
     97         33  H    CARTESIAN X    -8.074207     -0.238290  KCAL/ANGSTROM
     98         33  H    CARTESIAN Y    -1.869433     -0.539880  KCAL/ANGSTROM
     99         33  H    CARTESIAN Z     1.568377     -0.054466  KCAL/ANGSTROM
    100         34  H    CARTESIAN X    -8.595388     -0.082658  KCAL/ANGSTROM
    101         34  H    CARTESIAN Y    -1.603316     -0.135441  KCAL/ANGSTROM
    102         34  H    CARTESIAN Z     0.027611      0.216438  KCAL/ANGSTROM
    103         35  H    CARTESIAN X     6.750888      0.065292  KCAL/ANGSTROM
    104         35  H    CARTESIAN Y     1.366346     -0.106360  KCAL/ANGSTROM
    105         35  H    CARTESIAN Z     3.180589      0.196106  KCAL/ANGSTROM
    106         36  H    CARTESIAN X     7.870407      0.308622  KCAL/ANGSTROM
    107         36  H    CARTESIAN Y     1.982787      0.063115  KCAL/ANGSTROM
    108         36  H    CARTESIAN Z     2.135624     -0.113282  KCAL/ANGSTROM
    109         37  H    CARTESIAN X    -3.208702      0.169807  KCAL/ANGSTROM
    110         37  H    CARTESIAN Y     1.398133     -0.272397  KCAL/ANGSTROM
    111         37  H    CARTESIAN Z     2.688078      0.031542  KCAL/ANGSTROM
    112         38  H    CARTESIAN X    -5.653634      0.235819  KCAL/ANGSTROM
    113         38  H    CARTESIAN Y     1.221607      0.118972  KCAL/ANGSTROM
    114         38  H    CARTESIAN Z     2.843219     -0.031232  KCAL/ANGSTROM
    115         39  H    CARTESIAN X    -5.800337     -0.053787  KCAL/ANGSTROM
    116         39  H    CARTESIAN Y    -0.111362      0.002071  KCAL/ANGSTROM
    117         39  H    CARTESIAN Z    -1.287688      0.020297  KCAL/ANGSTROM
    118         40  H    CARTESIAN X    -3.374367      0.061278  KCAL/ANGSTROM
    119         40  H    CARTESIAN Y     0.059916     -0.323168  KCAL/ANGSTROM
    120         40  H    CARTESIAN Z    -1.440321      0.050702  KCAL/ANGSTROM
    121         41  H    CARTESIAN X     4.398396      0.361567  KCAL/ANGSTROM
    122         41  H    CARTESIAN Y     1.229385     -0.029485  KCAL/ANGSTROM
    123         41  H    CARTESIAN Z    -2.208994     -0.037512  KCAL/ANGSTROM
    124         42  H    CARTESIAN X     6.362837      0.063021  KCAL/ANGSTROM
    125         42  H    CARTESIAN Y     1.432292     -0.087689  KCAL/ANGSTROM
    126         42  H    CARTESIAN Z    -0.731937      0.200093  KCAL/ANGSTROM
    127         43  H    CARTESIAN X     5.118714     -0.252491  KCAL/ANGSTROM
    128         43  H    CARTESIAN Y    -2.156635     -0.150203  KCAL/ANGSTROM
    129         43  H    CARTESIAN Z     1.378800     -0.083576  KCAL/ANGSTROM
    130         44  H    CARTESIAN X     3.165907     -0.133372  KCAL/ANGSTROM
    131         44  H    CARTESIAN Y    -2.340285     -0.061958  KCAL/ANGSTROM
    132         44  H    CARTESIAN Z    -0.120002     -0.244035  KCAL/ANGSTROM




   ATOM   CHEMICAL          X               Y               Z
  NUMBER   SYMBOL      (ANGSTROMS)     (ANGSTROMS)     (ANGSTROMS)

     1       N         -1.17214323  *  -0.02197395  *  -1.52861081  *
     2       N         -1.70531006  *   0.82193856  *   0.65406644  *
     3       N         -0.19997679  *  -0.82459231  *  -3.51806664  *
     4       N         -7.88768550  *  -1.34837280  *   0.71402410  *
     5       N          7.06034813  *   1.36806722  *   2.21067181  *
     6       C          1.20639015  *  -0.25606831  *  -1.58743623  *
     7       C         -0.03268823  *  -0.38830183  *  -2.26540747  *
     8       C         -0.84881528  *   0.41645084  *  -0.30966027  *
     9       C         -3.11779758  *   0.72560363  *   0.61972232  *
    10       C          2.45626968  *  -0.65397092  *  -2.10966430  *
    11       C          3.65582559  *  -0.55099684  *  -1.23034300  *
    12       C         -3.77850202  *   1.06463707  *   1.81789462  *
    13       C         -5.15923423  *   0.95883871  *   1.89692602  *
    14       C         -5.89762040  *   0.52045935  *   0.79407332  *
    15       C         -5.24250604  *   0.21600382  *  -0.39939825  *
    16       C         -3.85697059  *   0.31477689  *  -0.49403069  *
    17       C          4.55540619  *   0.49602339  *  -1.41630805  *
    18       C          5.66300703  *   0.60144867  *  -0.57813227  *
    19       C          5.86204910  *  -0.33868946  *   0.43354261  *
    20       C          4.97107781  *  -1.39926028  *   0.59779649  *
    21       C          3.86328320  *  -1.50888155  *  -0.24110777  *
    22       O          2.59036632  *  -1.08899046  *  -3.25091259  *
    23       O         -8.26139838  *   0.99029329  *  -0.23492752  *
    24       O         -8.06039589  *   0.71657912  *   2.24956774  *
    25       O          7.16176159  *  -1.18798454  *   2.54034614  *
    26       O          8.45568691  *  -0.11936082  *   0.67541402  *
    27       S          0.94952991  *   0.41736104  *   0.00065538  *
    28       S         -7.62022355  *   0.34128272  *   0.90821342  *
    29       S          7.24244176  *  -0.18240614  *   1.48643525  *
    30       H         -1.30788806  *   1.19906577  *   1.53595142  *
    31       H          0.60799300  *  -1.11122621  *  -4.06398386  *
    32       H         -1.11337507  *  -0.91667330  *  -3.94024185  *
    33       H         -8.07420746  *  -1.86943261  *   1.56837672  *
    34       H         -8.59538775  *  -1.60331624  *   0.02761098  *
    35       H          6.75088838  *   1.36634584  *   3.18058945  *
    36       H          7.87040683  *   1.98278671  *   2.13562377  *
    37       H         -3.20870212  *   1.39813265  *   2.68807842  *
    38       H         -5.65363362  *   1.22160715  *   2.84321855  *
    39       H         -5.80033743  *  -0.11136194  *  -1.28768845  *
    40       H         -3.37436717  *   0.05991649  *  -1.44032063  *
    41       H          4.39839597  *   1.22938514  *  -2.20899415  *
    42       H          6.36283732  *   1.43229244  *  -0.73193740  *
    43       H          5.11871411  *  -2.15663457  *   1.37879959  *
    44       H          3.16590677  *  -2.34028478  *  -0.12000160  *

                             CARTESIAN COORDINATES

   1    N       -1.172143228    -0.021973952    -1.528610809
   2    N       -1.705310063     0.821938556     0.654066437
   3    N       -0.199976786    -0.824592306    -3.518066641
   4    N       -7.887685502    -1.348372797     0.714024105
   5    N        7.060348134     1.368067221     2.210671810
   6    C        1.206390149    -0.256068314    -1.587436226
   7    C       -0.032688234    -0.388301834    -2.265407474
   8    C       -0.848815282     0.416450839    -0.309660268
   9    C       -3.117797575     0.725603633     0.619722323
  10    C        2.456269684    -0.653970921    -2.109664304
  11    C        3.655825595    -0.550996843    -1.230342999
  12    C       -3.778502022     1.064637072     1.817894616
  13    C       -5.159234232     0.958838706     1.896926024
  14    C       -5.897620400     0.520459354     0.794073317
  15    C       -5.242506035     0.216003815    -0.399398252
  16    C       -3.856970588     0.314776892    -0.494030686
  17    C        4.555406190     0.496023394    -1.416308046
  18    C        5.663007031     0.601448670    -0.578132265
  19    C        5.862049095    -0.338689464     0.433542615
  20    C        4.971077814    -1.399260280     0.597796494
  21    C        3.863283201    -1.508881549    -0.241107770
  22    O        2.590366324    -1.088990459    -3.250912589
  23    O       -8.261398375     0.990293291    -0.234927520
  24    O       -8.060395889     0.716579118     2.249567738
  25    O        7.161761593    -1.187984542     2.540346135
  26    O        8.455686912    -0.119360820     0.675414020
  27    S        0.949529911     0.417361042     0.000655376
  28    S       -7.620223548     0.341282716     0.908213421
  29    S        7.242441758    -0.182406138     1.486435250
  30    H       -1.307888058     1.199065768     1.535951419
  31    H        0.607993001    -1.111226207    -4.063983856
  32    H       -1.113375073    -0.916673298    -3.940241845
  33    H       -8.074207455    -1.869432607     1.568376721
  34    H       -8.595387752    -1.603316242     0.027610981
  35    H        6.750888379     1.366345843     3.180589448
  36    H        7.870406828     1.982786714     2.135623771
  37    H       -3.208702121     1.398132650     2.688078420
  38    H       -5.653633621     1.221607148     2.843218550
  39    H       -5.800337426    -0.111361943    -1.287688447
  40    H       -3.374367174     0.059916485    -1.440320625
  41    H        4.398395970     1.229385136    -2.208994152
  42    H        6.362837322     1.432292441    -0.731937397
  43    H        5.118714112    -2.156634574     1.378799591
  44    H        3.165906773    -2.340284780    -0.120001604


           Empirical Formula: C16 H15 N5 O5 S3  =    44 atoms



      MOLECULAR POINT GROUP   :   C1  


                  EIGENVALUES  
 -38.37794 -37.79826 -35.86177 -35.82078 -35.78621 -31.49221 -31.03161 -30.69376
 -29.40169 -29.31501 -28.40431 -27.79931 -27.71575 -26.77340 -26.55164 -26.46000
 -26.14992 -24.72083 -23.67954 -22.55505 -22.18407 -21.69539 -21.40289 -20.46703
 -19.81455 -19.77561 -19.51718 -18.40016 -17.91182 -17.51059 -17.03607 -16.85435
 -16.68403 -16.56068 -16.47863 -16.24274 -16.09948 -16.02497 -15.91727 -15.71906
 -15.37014 -15.23994 -15.15312 -14.82656 -14.78227 -14.71908 -14.57512 -14.51117
 -14.40565 -14.01254 -13.89233 -13.72339 -13.67521 -13.12884 -12.86280 -12.78645
 -12.65284 -12.50136 -12.39240 -12.34218 -12.27122 -12.22113 -12.15484 -11.83756
 -11.78709 -11.31763 -11.08021 -10.86530 -10.81693 -10.72836 -10.69811 -10.55724
 -10.38521 -10.33550  -9.60010  -8.80559  -1.29084  -0.95595  -0.84382  -0.42950
  -0.34930  -0.25853  -0.20637   0.22370   0.23710   0.27126   0.60805   0.69286
   0.75706   0.80800   1.32517   1.37525   1.68111   1.79508   1.84193   2.16536
   2.32924   2.42975   2.60213   2.67088   2.74199   2.80769   2.93286   3.05940
   3.48652   3.61457   3.73417   3.84862   4.00636   4.08607   4.19691   4.23629
   4.27015   4.37404   4.39431   4.42774   4.44419   4.47910   4.51783   4.52146
   4.63219   4.65209   4.73527   4.75994   4.82889   5.24016   5.28270   5.32678
   5.35830   5.44544   5.51543   5.65915   5.67348   5.71295   5.78340   5.82093
   5.86842   5.91407   5.91634   5.99114   6.13789   6.20700   6.26906   6.65847
   6.68254   6.73926


              NET ATOMIC CHARGES AND DIPOLE CONTRIBUTIONS

  ATOM NO.   TYPE          CHARGE      No. of ELECS.   s-Pop       p-Pop       d-Pop       
    1          N          -0.632008        5.6320     1.77099     3.86101
    2          N          -0.431746        5.4317     1.52344     3.90831
    3          N          -0.477001        5.4770     1.50975     3.96725
    4          N          -0.929098        5.9291     1.66821     4.26089
    5          N          -0.924160        5.9242     1.66878     4.25538
    6          C          -0.639689        4.6397     1.05373     3.58596
    7          C           0.516414        3.4836     1.05351     2.43008
    8          C           0.383150        3.6168     1.10823     2.50862
    9          C           0.245416        3.7546     1.06510     2.68948
   10          C           0.559608        3.4404     1.08080     2.35959
   11          C          -0.081626        4.0816     1.08544     2.99618
   12          C          -0.267582        4.2676     1.08232     3.18526
   13          C          -0.002290        4.0023     1.09231     2.90998
   14          C          -0.450674        4.4507     1.10056     3.35012
   15          C          -0.000421        4.0004     1.09311     2.90731
   16          C          -0.258311        4.2583     1.08311     3.17520
   17          C          -0.157535        4.1575     1.08426     3.07328
   18          C          -0.056346        4.0563     1.09109     2.96525
   19          C          -0.380363        4.3804     1.10640     3.27396
   20          C          -0.048109        4.0481     1.09229     2.95582
   21          C          -0.161468        4.1615     1.08473     3.07674
   22          O          -0.635790        6.6358     1.88052     4.75527
   23          O          -1.020463        7.0205     1.89375     5.12672
   24          O          -1.019033        7.0190     1.89338     5.12565
   25          O          -1.018051        7.0181     1.89254     5.12552
   26          O          -1.019355        7.0194     1.89306     5.12629
   27          S           0.135757        5.8642     1.89385     3.83876     0.13163
   28          S           2.468086        3.5319     1.16026     1.91224     0.45941
   29          S           2.454075        3.5459     1.16427     1.91681     0.46484
   30          H           0.375458        0.6245     0.62454
   31          H           0.355927        0.6441     0.64407
   32          H           0.348984        0.6510     0.65102
   33          H           0.320886        0.6791     0.67911
   34          H           0.320629        0.6794     0.67937
   35          H           0.320047        0.6800     0.67995
   36          H           0.322745        0.6773     0.67726
   37          H           0.186482        0.8135     0.81352
   38          H           0.187142        0.8129     0.81286
   39          H           0.184155        0.8158     0.81584
   40          H           0.202106        0.7979     0.79789
   41          H           0.176152        0.8238     0.82385
   42          H           0.184424        0.8156     0.81558
   43          H           0.186801        0.8132     0.81320
   44          H           0.176674        0.8233     0.82333
 DIPOLE           X         Y         Z       TOTAL
 POINT-CHG.    -4.549     1.551     3.147     5.745
 HYBRID         0.298    -0.460    -0.133     0.564
 SUM           -4.251     1.090     3.014     5.324


          ATOMIC ORBITAL ELECTRON POPULATIONS

     Atom    s        px        py        pz      x^2-y^2     xz        z^2       yz        xy
    1  N   1.77099   1.32013   1.40351   1.13737
    2  N   1.52344   1.11822   1.54757   1.24252
    3  N   1.50975   1.25057   1.54750   1.16917
    4  N   1.66821   1.63856   1.29179   1.33054
    5  N   1.66878   1.52744   1.32564   1.40230
    6  C   1.05373   1.04001   1.46706   1.07889
    7  C   1.05351   0.84644   0.77650   0.80714
    8  C   1.10823   0.87586   0.80862   0.82414
    9  C   1.06510   0.78196   0.92375   0.98376
   10  C   1.08080   0.88614   0.67224   0.80121
   11  C   1.08544   1.00231   1.00084   0.99303
   12  C   1.08232   1.02917   1.10396   1.05213
   13  C   1.09231   0.98623   0.88642   1.03732
   14  C   1.10056   1.10244   1.19581   1.05186
   15  C   1.09311   0.99775   0.88860   1.02097
   16  C   1.08311   1.01285   1.08416   1.07819
   17  C   1.08426   0.98496   1.03444   1.05387
   18  C   1.09109   1.01112   1.01198   0.94214
   19  C   1.10640   1.10552   1.06845   1.10000
   20  C   1.09229   0.94895   0.99649   1.01038
   21  C   1.08473   1.04242   1.04917   0.98514
   22  O   1.88052   1.90165   1.52692   1.32670
   23  O   1.89375   1.78481   1.76859   1.57332
   24  O   1.89338   1.82818   1.82634   1.47114
   25  O   1.89254   1.85271   1.64784   1.62496
   26  O   1.89306   1.56034   1.84976   1.71619
   27  S   1.89385   0.93741   1.73670   1.16465   0.03807   0.00875   0.04185   0.03054   0.01242
   28  S   1.16026   0.69628   0.62031   0.59565   0.10325   0.08494   0.15264   0.08561   0.03297
   29  S   1.16427   0.65675   0.61338   0.64668   0.10733   0.13312   0.06633   0.10989   0.04818
   30  H   0.62454
   31  H   0.64407
   32  H   0.65102
   33  H   0.67911
   34  H   0.67937
   35  H   0.67995
   36  H   0.67726
   37  H   0.81352
   38  H   0.81286
   39  H   0.81584
   40  H   0.79789
   41  H   0.82385
   42  H   0.81558
   43  H   0.81320
   44  H   0.82333

 **********************
 *                    *
 * JOB ENDED NORMALLY *
 *                    *
 **********************



 TOTAL JOB TIME:            10.42 SECONDS

 == MOPAC DONE ==
