 *******************************************************************************
 **                                                                           **
 **                              MOPAC v23.2.2                                **
 **                                                                           **
 *******************************************************************************
 **          Digital Object Identifier (DOI): 10.5281/zenodo.6511958          **
 **    Visit the DOI location for information on how to cite this program.    **
 *******************************************************************************

                              PM7 CALCULATION RESULTS

 *******************************************************************************
 *  CALCULATION DONE: (MAX THREADS = 24)             Wed Mar 18 14:16:14 2026  *
 *  PM7        - The PM7 Hamiltonian to be used
 *
 *
 *
 *                 CHARGE ON SYSTEM = 0
 *
 *
 *
 *  EPS=78.4   - USE ANDREAS KLAMT'S COSMO IMPLICIT SOLVATION MODEL
 *  T=         - A TIME OF 172800.0 SECONDS REQUESTED
 *  DUMP=N     - RESTART FILE WRITTEN EVERY 7200.0 SECONDS REQUESTED
 *******************************************************************************
PM7 CHARGE=0 EPS=78.4


   ATOM   CHEMICAL          X               Y               Z
  NUMBER   SYMBOL      (ANGSTROMS)     (ANGSTROMS)     (ANGSTROMS)

     1       N          0.95670000  *   1.51290000  *   0.84850000  *
     2       N          1.82260000  *  -0.63100000  *   0.21470000  *
     3       N         -0.31100000  *   3.35430000  *   1.44750000  *
     4       N          8.25740000  *   0.08310000  *   1.34160000  *
     5       N         -6.76300000  *  -2.89850000  *  -1.69240000  *
     6       C         -1.36090000  *   1.24310000  *   0.91110000  *
     7       C         -0.27000000  *   2.06460000  *   1.08060000  *
     8       C          0.83610000  *   0.24850000  *   0.51220000  *
     9       C          3.20910000  *  -0.41650000  *   0.10350000  *
    10       C         -2.75740000  *   1.55330000  *   1.12990000  *
    11       C         -3.82100000  *   0.83560000  *   0.37670000  *
    12       C          3.82240000  *   0.83840000  *   0.21520000  *
    13       C          5.21120000  *   0.98280000  *   0.10920000  *
    14       C          6.00870000  *  -0.14190000  *  -0.09630000  *
    15       C          5.42830000  *  -1.40300000  *  -0.21690000  *
    16       C          4.03950000  *  -1.53290000  *  -0.11200000  *
    17       C         -3.72150000  *   0.62920000  *  -1.00680000  *
    18       C         -4.74720000  *  -0.03070000  *  -1.68860000  *
    19       C         -5.87090000  *  -0.47610000  *  -0.98440000  *
    20       C         -5.99310000  *  -0.24260000  *   0.38890000  *
    21       C         -4.96680000  *   0.41710000  *   1.06830000  *
    22       O         -3.13490000  *   2.41260000  *   1.92810000  *
    23       O          8.31820000  *  -1.16230000  *  -0.81890000  *
    24       O          8.04660000  *   1.35460000  *  -0.80080000  *
    25       O         -7.07910000  *  -0.98130000  *  -3.26120000  *
    26       O         -8.41500000  *  -1.11520000  *  -1.11310000  *
    27       S         -0.80130000  *  -0.31850000  *   0.48180000  *
    28       S          7.75840000  *   0.04670000  *  -0.26080000  *
    29       S         -7.18670000  *  -1.28190000  *  -1.85320000  *
    30       H          1.53240000  *  -1.57820000  *   0.00990000  *
    31       H          0.55280000  *   3.76150000  *   1.79050000  *
    32       H         -1.13650000  *   3.69960000  *   1.93660000  *
    33       H          8.86640000  *  -0.71230000  *   1.53300000  *
    34       H          8.68030000  *   0.98760000  *   1.55140000  *
    35       H         -6.58290000  *  -3.30010000  *  -2.61350000  *
    36       H         -7.48580000  *  -3.39240000  *  -1.16700000  *
    37       H          3.23330000  *   1.73710000  *   0.37570000  *
    38       H          5.65350000  *   1.97330000  *   0.18830000  *
    39       H          6.04050000  *  -2.28470000  *  -0.39110000  *
    40       H          3.60810000  *  -2.52730000  *  -0.20210000  *
    41       H         -2.86400000  *   0.99510000  *  -1.56750000  *
    42       H         -4.66900000  *  -0.18330000  *  -2.76330000  *
    43       H         -6.88080000  *  -0.56150000  *   0.93140000  *
    44       H         -5.06360000  *   0.61010000  *   2.13550000  *



          CARTESIAN COORDINATES 

    NO.       ATOM           X           Y           Z

     1         N          0.9567      1.5129      0.8485
     2         N          1.8226     -0.6310      0.2147
     3         N         -0.3110      3.3543      1.4475
     4         N          8.2574      0.0831      1.3416
     5         N         -6.7630     -2.8985     -1.6924
     6         C         -1.3609      1.2431      0.9111
     7         C         -0.2700      2.0646      1.0806
     8         C          0.8361      0.2485      0.5122
     9         C          3.2091     -0.4165      0.1035
    10         C         -2.7574      1.5533      1.1299
    11         C         -3.8210      0.8356      0.3767
    12         C          3.8224      0.8384      0.2152
    13         C          5.2112      0.9828      0.1092
    14         C          6.0087     -0.1419     -0.0963
    15         C          5.4283     -1.4030     -0.2169
    16         C          4.0395     -1.5329     -0.1120
    17         C         -3.7215      0.6292     -1.0068
    18         C         -4.7472     -0.0307     -1.6886
    19         C         -5.8709     -0.4761     -0.9844
    20         C         -5.9931     -0.2426      0.3889
    21         C         -4.9668      0.4171      1.0683
    22         O         -3.1349      2.4126      1.9281
    23         O          8.3182     -1.1623     -0.8189
    24         O          8.0466      1.3546     -0.8008
    25         O         -7.0791     -0.9813     -3.2612
    26         O         -8.4150     -1.1152     -1.1131
    27         S         -0.8013     -0.3185      0.4818
    28         S          7.7584      0.0467     -0.2608
    29         S         -7.1867     -1.2819     -1.8532
    30         H          1.5324     -1.5782      0.0099
    31         H          0.5528      3.7615      1.7905
    32         H         -1.1365      3.6996      1.9366
    33         H          8.8664     -0.7123      1.5330
    34         H          8.6803      0.9876      1.5514
    35         H         -6.5829     -3.3001     -2.6135
    36         H         -7.4858     -3.3924     -1.1670
    37         H          3.2333      1.7371      0.3757
    38         H          5.6535      1.9733      0.1883
    39         H          6.0405     -2.2847     -0.3911
    40         H          3.6081     -2.5273     -0.2021
    41         H         -2.8640      0.9951     -1.5675
    42         H         -4.6690     -0.1833     -2.7633
    43         H         -6.8808     -0.5615      0.9314
    44         H         -5.0636      0.6101      2.1355

 General Reference for PM7:
 "Optimization of Parameters for Semiempirical Methods VI: More Modifications to the 
 NDDO Approximations and Re-optimization of Parameters", J. J. P. Stewart, J. Mol. Mod., 1:32, 19 (2013)
 https://link.springer.com/article/10.1007/s00894-012-1667-x

           Empirical Formula: C16 H15 N5 O5 S3  =    44 atoms



      MOLECULAR POINT GROUP   :   C1  


      RHF CALCULATION, NO. OF DOUBLY OCCUPIED LEVELS = 76


          Geometry optimization using L-BFGS
 CYCLE:     1 TIME:   0.145 TIME LEFT:  2.00D  GRAD.:   164.168 HEAT: -142.1253
 CYCLE:     2 TIME:   0.055 TIME LEFT:  2.00D  GRAD.:   161.457 HEAT: -142.3950
 CYCLE:     3 TIME:   0.066 TIME LEFT:  2.00D  GRAD.:    51.343 HEAT: -152.9560
 CYCLE:     4 TIME:   0.066 TIME LEFT:  2.00D  GRAD.:   161.666 HEAT: -142.3951
 CYCLE:     5 TIME:   0.078 TIME LEFT:  2.00D  GRAD.:    51.423 HEAT: -152.9618
 CYCLE:     6 TIME:   0.059 TIME LEFT:  2.00D  GRAD.:    46.498 HEAT: -154.2703
 CYCLE:     7 TIME:   0.062 TIME LEFT:  2.00D  GRAD.:    37.574 HEAT: -155.7223
 CYCLE:     8 TIME:   0.059 TIME LEFT:  2.00D  GRAD.:    71.430 HEAT: -156.6731
 CYCLE:     9 TIME:   0.059 TIME LEFT:  2.00D  GRAD.:    25.350 HEAT: -157.5021
 CYCLE:    10 TIME:   0.055 TIME LEFT:  2.00D  GRAD.:    17.554 HEAT: -157.7767
 CYCLE:    11 TIME:   0.059 TIME LEFT:  2.00D  GRAD.:    13.993 HEAT: -157.9918
 CYCLE:    12 TIME:   0.059 TIME LEFT:  2.00D  GRAD.:    22.618 HEAT: -158.4037
 CYCLE:    13 TIME:   0.059 TIME LEFT:  2.00D  GRAD.:    15.025 HEAT: -158.6438
 CYCLE:    14 TIME:   0.055 TIME LEFT:  2.00D  GRAD.:     9.997 HEAT: -158.7495
 CYCLE:    15 TIME:   0.059 TIME LEFT:  2.00D  GRAD.:    11.708 HEAT: -158.9049
 CYCLE:    16 TIME:   0.059 TIME LEFT:  2.00D  GRAD.:    13.190 HEAT: -159.0608
 CYCLE:    17 TIME:   0.059 TIME LEFT:  2.00D  GRAD.:    12.764 HEAT: -159.1952
 CYCLE:    18 TIME:   0.059 TIME LEFT:  2.00D  GRAD.:    10.938 HEAT: -159.3239
 CYCLE:    19 TIME:   0.055 TIME LEFT:  2.00D  GRAD.:     8.856 HEAT: -159.3967
 CYCLE:    20 TIME:   0.055 TIME LEFT:  2.00D  GRAD.:     7.698 HEAT: -159.5654
 CYCLE:    21 TIME:   0.059 TIME LEFT:  2.00D  GRAD.:    12.569 HEAT: -159.6822
 CYCLE:    22 TIME:   0.059 TIME LEFT:  2.00D  GRAD.:     7.702 HEAT: -159.7303
 CYCLE:    23 TIME:   0.055 TIME LEFT:  2.00D  GRAD.:     7.013 HEAT: -159.5962
 CYCLE:    24 TIME:   0.055 TIME LEFT:  2.00D  GRAD.:    10.196 HEAT: -159.6781
 CYCLE:    25 TIME:   0.059 TIME LEFT:  2.00D  GRAD.:     8.393 HEAT: -159.6960
 CYCLE:    26 TIME:   0.062 TIME LEFT:  2.00D  GRAD.:     7.616 HEAT: -159.9001
 CYCLE:    27 TIME:   0.055 TIME LEFT:  2.00D  GRAD.:     7.075 HEAT: -160.0778
 CYCLE:    28 TIME:   0.055 TIME LEFT:  2.00D  GRAD.:     9.851 HEAT: -160.0284
 CYCLE:    29 TIME:   0.055 TIME LEFT:  2.00D  GRAD.:     5.644 HEAT: -160.0812
 CYCLE:    30 TIME:   0.055 TIME LEFT:  2.00D  GRAD.:     4.946 HEAT: -160.1118
 CYCLE:    31 TIME:   0.059 TIME LEFT:  2.00D  GRAD.:     5.931 HEAT: -160.1161
 CYCLE:    32 TIME:   0.055 TIME LEFT:  2.00D  GRAD.:     5.825 HEAT: -160.1755
 CYCLE:    33 TIME:   0.062 TIME LEFT:  2.00D  GRAD.:    13.359 HEAT: -160.0649
 CYCLE:    34 TIME:   0.059 TIME LEFT:  2.00D  GRAD.:     5.828 HEAT: -160.1743
 CYCLE:    35 TIME:   0.055 TIME LEFT:  2.00D  GRAD.:     4.289 HEAT: -160.1611
 CYCLE:    36 TIME:   0.074 TIME LEFT:  2.00D  GRAD.:     5.077 HEAT: -160.2001
 CYCLE:    37 TIME:   0.094 TIME LEFT:  2.00D  GRAD.:     8.256 HEAT: -160.2061
 CYCLE:    38 TIME:   0.074 TIME LEFT:  2.00D  GRAD.:     9.839 HEAT: -160.3616
 CYCLE:    39 TIME:   0.066 TIME LEFT:  2.00D  GRAD.:     6.748 HEAT: -160.3942
 CYCLE:    40 TIME:   0.090 TIME LEFT:  2.00D  GRAD.:     7.180 HEAT: -160.5889
 CYCLE:    41 TIME:   0.066 TIME LEFT:  2.00D  GRAD.:     7.717 HEAT: -160.6526
 CYCLE:    42 TIME:   0.062 TIME LEFT:  2.00D  GRAD.:     5.797 HEAT: -160.6402
 CYCLE:    43 TIME:   0.066 TIME LEFT:  2.00D  GRAD.:     6.129 HEAT: -160.6863
 CYCLE:    44 TIME:   0.059 TIME LEFT:  2.00D  GRAD.:     9.933 HEAT: -160.6303
 CYCLE:    45 TIME:   0.055 TIME LEFT:  2.00D  GRAD.:     6.344 HEAT: -160.6532
 CYCLE:    46 TIME:   0.062 TIME LEFT:  2.00D  GRAD.:     5.528 HEAT: -160.7781
 CYCLE:    47 TIME:   0.055 TIME LEFT:  2.00D  GRAD.:     6.818 HEAT: -160.6814
 CYCLE:    48 TIME:   0.062 TIME LEFT:  2.00D  GRAD.:    10.709 HEAT: -160.7615
 CYCLE:    49 TIME:   0.059 TIME LEFT:  2.00D  GRAD.:     6.246 HEAT: -160.8628
 CYCLE:    50 TIME:   0.070 TIME LEFT:  2.00D  GRAD.:     5.349 HEAT: -160.8555
 CYCLE:    51 TIME:   0.055 TIME LEFT:  2.00D  GRAD.:     6.572 HEAT: -160.9030
 CYCLE:    52 TIME:   0.055 TIME LEFT:  2.00D  GRAD.:     5.603 HEAT: -160.8346
 CYCLE:    53 TIME:   0.059 TIME LEFT:  2.00D  GRAD.:     5.655 HEAT: -160.7896
 CYCLE:    54 TIME:   0.059 TIME LEFT:  2.00D  GRAD.:     9.158 HEAT: -160.8453
 CYCLE:    55 TIME:   0.055 TIME LEFT:  2.00D  GRAD.:     3.996 HEAT: -160.8453
 CYCLE:    56 TIME:   0.062 TIME LEFT:  2.00D  GRAD.:     2.758 HEAT: -160.8581
 CYCLE:    57 TIME:   0.059 TIME LEFT:  2.00D  GRAD.:     3.885 HEAT: -160.8255
 CYCLE:    58 TIME:   0.055 TIME LEFT:  2.00D  GRAD.:     4.919 HEAT: -160.8346
 CYCLE:    59 TIME:   0.062 TIME LEFT:  2.00D  GRAD.:     8.160 HEAT: -161.0263
 CYCLE:    60 TIME:   0.055 TIME LEFT:  2.00D  GRAD.:     4.389 HEAT: -161.0642
 CYCLE:    61 TIME:   0.059 TIME LEFT:  2.00D  GRAD.:     4.599 HEAT: -161.0578
 CYCLE:    62 TIME:   0.055 TIME LEFT:  2.00D  GRAD.:     5.171 HEAT: -161.0752
 CYCLE:    63 TIME:   0.059 TIME LEFT:  2.00D  GRAD.:    11.010 HEAT: -161.1540
 CYCLE:    64 TIME:   0.059 TIME LEFT:  2.00D  GRAD.:     4.664 HEAT: -161.1804
 CYCLE:    65 TIME:   0.055 TIME LEFT:  2.00D  GRAD.:     3.404 HEAT: -161.2066
 CYCLE:    66 TIME:   0.055 TIME LEFT:  2.00D  GRAD.:     3.797 HEAT: -161.2211
 CYCLE:    67 TIME:   0.059 TIME LEFT:  2.00D  GRAD.:     3.984 HEAT: -161.1812
 CYCLE:    68 TIME:   0.059 TIME LEFT:  2.00D  GRAD.:     8.532 HEAT: -161.1720
 CYCLE:    69 TIME:   0.059 TIME LEFT:  2.00D  GRAD.:     2.402 HEAT: -161.2007
 CYCLE:    70 TIME:   0.055 TIME LEFT:  2.00D  GRAD.:     1.795 HEAT: -161.2052
 CYCLE:    71 TIME:   0.059 TIME LEFT:  2.00D  GRAD.:     2.363 HEAT: -161.2254
 CYCLE:    72 TIME:   0.059 TIME LEFT:  2.00D  GRAD.:     3.636 HEAT: -161.2298
 CYCLE:    73 TIME:   0.059 TIME LEFT:  2.00D  GRAD.:     3.160 HEAT: -161.2264
 CYCLE:    74 TIME:   0.062 TIME LEFT:  2.00D  GRAD.:     2.603 HEAT: -161.2155
 CYCLE:    75 TIME:   0.059 TIME LEFT:  2.00D  GRAD.:     4.270 HEAT: -160.9286
 CYCLE:    76 TIME:   0.055 TIME LEFT:  2.00D  GRAD.:     3.427 HEAT: -161.0570
 CYCLE:    77 TIME:   0.055 TIME LEFT:  2.00D  GRAD.:     3.147 HEAT: -161.0830
 CYCLE:    78 TIME:   0.059 TIME LEFT:  2.00D  GRAD.:     5.600 HEAT: -160.9736
 CYCLE:    79 TIME:   0.055 TIME LEFT:  2.00D  GRAD.:     4.343 HEAT: -160.9847
 CYCLE:    80 TIME:   0.055 TIME LEFT:  2.00D  GRAD.:     3.756 HEAT: -161.0229
 CYCLE:    81 TIME:   0.059 TIME LEFT:  2.00D  GRAD.:     3.780 HEAT: -161.0326
 CYCLE:    82 TIME:   0.062 TIME LEFT:  2.00D  GRAD.:     7.557 HEAT: -161.0124
 CYCLE:    83 TIME:   0.055 TIME LEFT:  2.00D  GRAD.:     5.440 HEAT: -161.0239
 CYCLE:    84 TIME:   0.059 TIME LEFT:  2.00D  GRAD.:     3.027 HEAT: -161.0850
 CYCLE:    85 TIME:   0.055 TIME LEFT:  2.00D  GRAD.:     2.800 HEAT: -161.0584
 CYCLE:    86 TIME:   0.059 TIME LEFT:  2.00D  GRAD.:     3.538 HEAT: -161.0673
 CYCLE:    87 TIME:   0.055 TIME LEFT:  2.00D  GRAD.:     3.646 HEAT: -161.0974
 CYCLE:    88 TIME:   0.062 TIME LEFT:  2.00D  GRAD.:     5.906 HEAT: -161.1467
 CYCLE:    89 TIME:   0.055 TIME LEFT:  2.00D  GRAD.:     2.217 HEAT: -161.1164
 CYCLE:    90 TIME:   0.062 TIME LEFT:  2.00D  GRAD.:     2.391 HEAT: -161.1328
 CYCLE:    91 TIME:   0.055 TIME LEFT:  2.00D  GRAD.:     2.857 HEAT: -161.2244
 CYCLE:    92 TIME:   0.062 TIME LEFT:  2.00D  GRAD.:     5.472 HEAT: -161.3869
 CYCLE:    93 TIME:   0.055 TIME LEFT:  2.00D  GRAD.:     4.214 HEAT: -161.3535
 CYCLE:    94 TIME:   0.059 TIME LEFT:  2.00D  GRAD.:     3.205 HEAT: -161.3537
 CYCLE:    95 TIME:   0.062 TIME LEFT:  2.00D  GRAD.:     3.437 HEAT: -161.3507
 CYCLE:    96 TIME:   0.059 TIME LEFT:  2.00D  GRAD.:     6.039 HEAT: -161.3894
 CYCLE:    97 TIME:   0.059 TIME LEFT:  2.00D  GRAD.:     4.405 HEAT: -161.3345
 CYCLE:    98 TIME:   0.059 TIME LEFT:  2.00D  GRAD.:     3.638 HEAT: -161.4213
 CYCLE:    99 TIME:   0.062 TIME LEFT:  2.00D  GRAD.:     5.246 HEAT: -161.4136
 CYCLE:   100 TIME:   0.055 TIME LEFT:  2.00D  GRAD.:     3.329 HEAT: -161.4192
 CYCLE:   101 TIME:   0.059 TIME LEFT:  2.00D  GRAD.:     2.988 HEAT: -161.4017
 CYCLE:   102 TIME:   0.059 TIME LEFT:  2.00D  GRAD.:     3.927 HEAT: -161.4330
 CYCLE:   103 TIME:   0.059 TIME LEFT:  2.00D  GRAD.:     3.460 HEAT: -161.4110
 CYCLE:   104 TIME:   0.059 TIME LEFT:  2.00D  GRAD.:     6.288 HEAT: -161.4298
 CYCLE:   105 TIME:   0.055 TIME LEFT:  2.00D  GRAD.:     2.518 HEAT: -161.4334
 CYCLE:   106 TIME:   0.055 TIME LEFT:  2.00D  GRAD.:     2.382 HEAT: -161.4286
 CYCLE:   107 TIME:   0.059 TIME LEFT:  2.00D  GRAD.:     2.863 HEAT: -161.4353
 CYCLE:   108 TIME:   0.059 TIME LEFT:  2.00D  GRAD.:     5.263 HEAT: -161.4310
 CYCLE:   109 TIME:   0.055 TIME LEFT:  2.00D  GRAD.:     2.449 HEAT: -161.4302
 CYCLE:   110 TIME:   0.059 TIME LEFT:  2.00D  GRAD.:     2.803 HEAT: -161.3523
 CYCLE:   111 TIME:   0.055 TIME LEFT:  2.00D  GRAD.:     2.865 HEAT: -161.3458
 CYCLE:   112 TIME:   0.059 TIME LEFT:  2.00D  GRAD.:     3.870 HEAT: -161.3378
 CYCLE:   113 TIME:   0.055 TIME LEFT:  2.00D  GRAD.:     3.973 HEAT: -161.3851
 CYCLE:   114 TIME:   0.055 TIME LEFT:  2.00D  GRAD.:     2.452 HEAT: -161.3845
 CYCLE:   115 TIME:   0.062 TIME LEFT:  2.00D  GRAD.:     1.842 HEAT: -161.3945
 CYCLE:   116 TIME:   0.059 TIME LEFT:  2.00D  GRAD.:     2.924 HEAT: -161.4038
 CYCLE:   117 TIME:   0.059 TIME LEFT:  2.00D  GRAD.:     3.711 HEAT: -161.3820
 CYCLE:   118 TIME:   0.055 TIME LEFT:  2.00D  GRAD.:     3.865 HEAT: -161.3611
 CYCLE:   119 TIME:   0.059 TIME LEFT:  2.00D  GRAD.:     3.340 HEAT: -161.2663
 CYCLE:   120 TIME:   0.059 TIME LEFT:  2.00D  GRAD.:     4.737 HEAT: -161.2729
 CYCLE:   121 TIME:   0.055 TIME LEFT:  2.00D  GRAD.:     3.269 HEAT: -161.2811
 CYCLE:   122 TIME:   0.055 TIME LEFT:  2.00D  GRAD.:     2.984 HEAT: -161.3227
 CYCLE:   123 TIME:   0.062 TIME LEFT:  2.00D  GRAD.:     3.921 HEAT: -161.2397
 CYCLE:   124 TIME:   0.059 TIME LEFT:  2.00D  GRAD.:     4.473 HEAT: -161.2467
 CYCLE:   125 TIME:   0.062 TIME LEFT:  2.00D  GRAD.:     4.578 HEAT: -161.1879
 CYCLE:   126 TIME:   0.059 TIME LEFT:  2.00D  GRAD.:     5.449 HEAT: -161.2258
 CYCLE:   127 TIME:   0.059 TIME LEFT:  2.00D  GRAD.:     5.308 HEAT: -161.1837
 CYCLE:   128 TIME:   0.062 TIME LEFT:  2.00D  GRAD.:     5.842 HEAT: -161.1359
 CYCLE:   129 TIME:   0.059 TIME LEFT:  2.00D  GRAD.:     6.637 HEAT: -161.1139
 CYCLE:   130 TIME:   0.066 TIME LEFT:  2.00D  GRAD.:    36.667 HEAT: -160.8696
 CYCLE:   131 TIME:   0.086 TIME LEFT:  2.00D  GRAD.:    27.834 HEAT: -161.1396
 CYCLE:   132 TIME:   0.047 TIME LEFT:  2.00D  GRAD.:    19.978 HEAT: -161.1152
 CYCLE:   133 TIME:   0.043 TIME LEFT:  2.00D  GRAD.:    61.020 HEAT: -160.6741
 CYCLE:   134 TIME:   0.043 TIME LEFT:  2.00D  GRAD.:    43.226 HEAT: -161.0087
 CYCLE:   135 TIME:   0.043 TIME LEFT:  2.00D  GRAD.:    17.601 HEAT: -161.1498
 CYCLE:   136 TIME:   0.043 TIME LEFT:  2.00D  GRAD.:    15.594 HEAT: -161.2366
 CYCLE:   137 TIME:   0.039 TIME LEFT:  2.00D  GRAD.:    15.980 HEAT: -161.2001


           HEAT OF FORMATION IS ESSENTIALLY STATIONARY


          CURRENT BEST VALUE OF HEAT OF FORMATION =   -161.435264

 PM7 CHARGE=0 EPS=78.4


  N     0.98896600 +1   1.29236340 +1   0.99599783 +1
  N     1.79759275 +1  -0.73784004 +1   0.01056357 +1
  N    -0.23025105 +1   3.13435875 +1   1.81248789 +1
  N     8.16008806 +1   0.15043405 +1   1.55617350 +1
  N    -6.58727389 +1  -3.00782602 +1  -1.44703818 +1
  C    -1.38664813 +1   1.27626392 +1   0.70243855 +1
  C    -0.23684694 +1   1.95217596 +1   1.19252478 +1
  C     0.82135933 +1   0.11770258 +1   0.38327153 +1
  C     3.19138543 +1  -0.47784898 +1   0.04313401 +1
  C    -2.69121143 +1   1.81641530 +1   0.71228725 +1
  C    -3.80874746 +1   1.03662540 +1   0.10908148 +1
  C     3.74037146 +1   0.80187301 +1   0.17821937 +1
  C     5.12152248 +1   0.96692500 +1   0.13213106 +1
  C     5.96102153 +1  -0.13346255 +1  -0.04215426 +1
  C     5.41091246 +1  -1.41172999 +1  -0.17338622 +1
  C     4.03594340 +1  -1.59181490 +1  -0.13092927 +1
  C    -3.90242458 +1   0.90995993 +1  -1.27527607 +1
  C    -4.95300192 +1   0.17789917 +1  -1.82619175 +1
  C    -5.89702338 +1  -0.41874016 +1  -0.99131267 +1
  C    -5.81961490 +1  -0.25403872 +1   0.39195757 +1
  C    -4.76843031 +1   0.47266785 +1   0.94672626 +1
  O    -2.94350530 +1   2.91378071 +1   1.20508810 +1
  O     8.30052052 +1  -1.11778443 +1  -0.66830009 +1
  O     8.00217917 +1   1.37575417 +1  -0.68813583 +1
  O    -7.24677365 +1  -1.16739900 +1  -3.11045081 +1
  O    -8.37237373 +1  -1.26765095 +1  -0.86356511 +1
  S    -0.93032069 +1  -0.27593854 +1   0.05347421 +1
  S     7.68319444 +1   0.07790144 +1  -0.09725196 +1
  S    -7.16484372 +1  -1.40246644 +1  -1.67140402 +1
  H     1.52881837 +1  -1.68383203 +1  -0.32029126 +1
  H     0.62223662 +1   3.57088778 +1   2.13616068 +1
  H    -1.10480609 +1   3.63225210 +1   1.95937479 +1
  H     8.74705425 +1  -0.61699307 +1   1.87802155 +1
  H     8.59404756 +1   1.02383818 +1   1.84992514 +1
  H    -6.33460872 +1  -3.50877233 +1  -2.29658741 +1
  H    -7.17809312 +1  -3.61407303 +1  -0.88169531 +1
  H     3.10697212 +1   1.68196016 +1   0.30994043 +1
  H     5.52841680 +1   1.98345362 +1   0.23061837 +1
  H     6.05388703 +1  -2.29251960 +1  -0.31503187 +1
  H     3.61791647 +1  -2.59547377 +1  -0.23355377 +1
  H    -3.16514020 +1   1.37926344 +1  -1.92922929 +1
  H    -5.01557001 +1   0.08580876 +1  -2.91819651 +1
  H    -6.57594835 +1  -0.68282448 +1   1.06123933 +1
  H    -4.70094305 +1   0.59748918 +1   2.02929150 +1



 -------------------------------------------------------------------------------
 PM7 CHARGE=0 EPS=78.4




     HERBERTS TEST WAS SATISFIED IN BFGS                      
     SCF FIELD WAS ACHIEVED                                   


                              PM7 CALCULATION
                                                       MOPAC v23.2.2 Linux
                                                       Wed Mar 18 14:16:23 2026




          FINAL HEAT OF FORMATION =       -161.43526 KCAL/MOL =    -675.44514 KJ/MOL
          VAN DER WAALS AREA      =        413.57 SQUARE ANGSTROMS



          DIELECTRIC ENERGY       =         -2.61922 EV
          COSMO AREA              =        413.57 SQUARE ANGSTROMS
          COSMO VOLUME            =        462.39 CUBIC ANGSTROMS

          GRADIENT NORM           =          2.86251          =       0.43154 PER ATOM
          IONIZATION POTENTIAL    =          8.840295 EV
          HOMO LUMO ENERGIES (EV) =         -8.840 -1.301
          NO. OF FILLED LEVELS    =         76
          MOLECULAR WEIGHT        =        453.5050         POINT GROUP:  C1  

          MOLECULAR DIMENSIONS (Angstroms)

            Atom       Atom       Distance
            H    33    O    26    17.34977
            H    35    H    32     7.69674
            H    44    O    24     4.35855


          SCF CALCULATIONS        =        140

          WALL-CLOCK TIME         =      8.199 SECONDS
          COMPUTATION TIME        =          3 MINUTES AND 15.453 SECONDS



       FINAL  POINT  AND  DERIVATIVES

   PARAMETER     ATOM    TYPE            VALUE        GRADIENT
      1          1  N    CARTESIAN X     0.988966     -0.153929  KCAL/ANGSTROM
      2          1  N    CARTESIAN Y     1.292363      0.590226  KCAL/ANGSTROM
      3          1  N    CARTESIAN Z     0.995998      0.220624  KCAL/ANGSTROM
      4          2  N    CARTESIAN X     1.797593     -0.715014  KCAL/ANGSTROM
      5          2  N    CARTESIAN Y    -0.737840      0.215656  KCAL/ANGSTROM
      6          2  N    CARTESIAN Z     0.010564      0.060364  KCAL/ANGSTROM
      7          3  N    CARTESIAN X    -0.230251     -0.282569  KCAL/ANGSTROM
      8          3  N    CARTESIAN Y     3.134359     -0.003060  KCAL/ANGSTROM
      9          3  N    CARTESIAN Z     1.812488     -0.165225  KCAL/ANGSTROM
     10          4  N    CARTESIAN X     8.160088      0.014622  KCAL/ANGSTROM
     11          4  N    CARTESIAN Y     0.150434     -0.079111  KCAL/ANGSTROM
     12          4  N    CARTESIAN Z     1.556174      0.043845  KCAL/ANGSTROM
     13          5  N    CARTESIAN X    -6.587274     -0.013773  KCAL/ANGSTROM
     14          5  N    CARTESIAN Y    -3.007826      0.049051  KCAL/ANGSTROM
     15          5  N    CARTESIAN Z    -1.447038     -0.093247  KCAL/ANGSTROM
     16          6  C    CARTESIAN X    -1.386648     -0.474196  KCAL/ANGSTROM
     17          6  C    CARTESIAN Y     1.276264     -0.023327  KCAL/ANGSTROM
     18          6  C    CARTESIAN Z     0.702439      0.094865  KCAL/ANGSTROM
     19          7  C    CARTESIAN X    -0.236847      0.257388  KCAL/ANGSTROM
     20          7  C    CARTESIAN Y     1.952176      0.175230  KCAL/ANGSTROM
     21          7  C    CARTESIAN Z     1.192525      0.092523  KCAL/ANGSTROM
     22          8  C    CARTESIAN X     0.821359      0.113768  KCAL/ANGSTROM
     23          8  C    CARTESIAN Y     0.117703     -0.462412  KCAL/ANGSTROM
     24          8  C    CARTESIAN Z     0.383272     -0.077875  KCAL/ANGSTROM
     25          9  C    CARTESIAN X     3.191385     -0.217954  KCAL/ANGSTROM
     26          9  C    CARTESIAN Y    -0.477849      0.289788  KCAL/ANGSTROM
     27          9  C    CARTESIAN Z     0.043134      0.085122  KCAL/ANGSTROM
     28         10  C    CARTESIAN X    -2.691211     -0.183449  KCAL/ANGSTROM
     29         10  C    CARTESIAN Y     1.816415      0.646721  KCAL/ANGSTROM
     30         10  C    CARTESIAN Z     0.712287      0.172921  KCAL/ANGSTROM
     31         11  C    CARTESIAN X    -3.808747      0.245988  KCAL/ANGSTROM
     32         11  C    CARTESIAN Y     1.036625     -0.110743  KCAL/ANGSTROM
     33         11  C    CARTESIAN Z     0.109081      0.624363  KCAL/ANGSTROM
     34         12  C    CARTESIAN X     3.740371      0.053292  KCAL/ANGSTROM
     35         12  C    CARTESIAN Y     0.801873     -0.442551  KCAL/ANGSTROM
     36         12  C    CARTESIAN Z     0.178219      0.124439  KCAL/ANGSTROM
     37         13  C    CARTESIAN X     5.121522     -0.462579  KCAL/ANGSTROM
     38         13  C    CARTESIAN Y     0.966925      0.296146  KCAL/ANGSTROM
     39         13  C    CARTESIAN Z     0.132131      0.054130  KCAL/ANGSTROM
     40         14  C    CARTESIAN X     5.961022      0.105067  KCAL/ANGSTROM
     41         14  C    CARTESIAN Y    -0.133463     -0.139712  KCAL/ANGSTROM
     42         14  C    CARTESIAN Z    -0.042154     -0.342608  KCAL/ANGSTROM
     43         15  C    CARTESIAN X     5.410912      0.082204  KCAL/ANGSTROM
     44         15  C    CARTESIAN Y    -1.411730      0.250866  KCAL/ANGSTROM
     45         15  C    CARTESIAN Z    -0.173386      0.037154  KCAL/ANGSTROM
     46         16  C    CARTESIAN X     4.035943      0.232055  KCAL/ANGSTROM
     47         16  C    CARTESIAN Y    -1.591815     -0.329447  KCAL/ANGSTROM
     48         16  C    CARTESIAN Z    -0.130929      0.088819  KCAL/ANGSTROM
     49         17  C    CARTESIAN X    -3.902425      0.098261  KCAL/ANGSTROM
     50         17  C    CARTESIAN Y     0.909960     -0.097148  KCAL/ANGSTROM
     51         17  C    CARTESIAN Z    -1.275276     -0.681955  KCAL/ANGSTROM
     52         18  C    CARTESIAN X    -4.953002     -0.154930  KCAL/ANGSTROM
     53         18  C    CARTESIAN Y     0.177899      0.074519  KCAL/ANGSTROM
     54         18  C    CARTESIAN Z    -1.826192      0.146110  KCAL/ANGSTROM
     55         19  C    CARTESIAN X    -5.897023     -0.000550  KCAL/ANGSTROM
     56         19  C    CARTESIAN Y    -0.418740      0.046624  KCAL/ANGSTROM
     57         19  C    CARTESIAN Z    -0.991313     -0.252269  KCAL/ANGSTROM
     58         20  C    CARTESIAN X    -5.819615      0.180093  KCAL/ANGSTROM
     59         20  C    CARTESIAN Y    -0.254039      0.463290  KCAL/ANGSTROM
     60         20  C    CARTESIAN Z     0.391958      0.082954  KCAL/ANGSTROM
     61         21  C    CARTESIAN X    -4.768430     -0.078135  KCAL/ANGSTROM
     62         21  C    CARTESIAN Y     0.472668     -0.277658  KCAL/ANGSTROM
     63         21  C    CARTESIAN Z     0.946726     -0.090302  KCAL/ANGSTROM
     64         22  O    CARTESIAN X    -2.943505      0.443512  KCAL/ANGSTROM
     65         22  O    CARTESIAN Y     2.913781     -0.831356  KCAL/ANGSTROM
     66         22  O    CARTESIAN Z     1.205088     -0.504338  KCAL/ANGSTROM
     67         23  O    CARTESIAN X     8.300521     -0.177707  KCAL/ANGSTROM
     68         23  O    CARTESIAN Y    -1.117784     -0.158049  KCAL/ANGSTROM
     69         23  O    CARTESIAN Z    -0.668300     -0.198157  KCAL/ANGSTROM
     70         24  O    CARTESIAN X     8.002179      0.083045  KCAL/ANGSTROM
     71         24  O    CARTESIAN Y     1.375754      0.084369  KCAL/ANGSTROM
     72         24  O    CARTESIAN Z    -0.688136     -0.334330  KCAL/ANGSTROM
     73         25  O    CARTESIAN X    -7.246774     -0.024395  KCAL/ANGSTROM
     74         25  O    CARTESIAN Y    -1.167399     -0.176721  KCAL/ANGSTROM
     75         25  O    CARTESIAN Z    -3.110451     -0.437770  KCAL/ANGSTROM
     76         26  O    CARTESIAN X    -8.372374     -0.060915  KCAL/ANGSTROM
     77         26  O    CARTESIAN Y    -1.267651     -0.212121  KCAL/ANGSTROM
     78         26  O    CARTESIAN Z    -0.863565      0.114368  KCAL/ANGSTROM
     79         27  S    CARTESIAN X    -0.930321     -0.071761  KCAL/ANGSTROM
     80         27  S    CARTESIAN Y    -0.275939      0.105731  KCAL/ANGSTROM
     81         27  S    CARTESIAN Z     0.053474      0.124884  KCAL/ANGSTROM
     82         28  S    CARTESIAN X     7.683194      0.008339  KCAL/ANGSTROM
     83         28  S    CARTESIAN Y     0.077901      0.164697  KCAL/ANGSTROM
     84         28  S    CARTESIAN Z    -0.097252     -0.005446  KCAL/ANGSTROM
     85         29  S    CARTESIAN X    -7.164844      0.140672  KCAL/ANGSTROM
     86         29  S    CARTESIAN Y    -1.402466     -0.153011  KCAL/ANGSTROM
     87         29  S    CARTESIAN Z    -1.671404      0.552709  KCAL/ANGSTROM
     88         30  H    CARTESIAN X     1.528818      0.157344  KCAL/ANGSTROM
     89         30  H    CARTESIAN Y    -1.683832     -0.160659  KCAL/ANGSTROM
     90         30  H    CARTESIAN Z    -0.320291      0.213387  KCAL/ANGSTROM
     91         31  H    CARTESIAN X     0.622237     -0.097718  KCAL/ANGSTROM
     92         31  H    CARTESIAN Y     3.570888     -0.353981  KCAL/ANGSTROM
     93         31  H    CARTESIAN Z     2.136161      0.053820  KCAL/ANGSTROM
     94         32  H    CARTESIAN X    -1.104806     -0.121204  KCAL/ANGSTROM
     95         32  H    CARTESIAN Y     3.632252     -0.342117  KCAL/ANGSTROM
     96         32  H    CARTESIAN Z     1.959375      0.264463  KCAL/ANGSTROM
     97         33  H    CARTESIAN X     8.747054      0.241635  KCAL/ANGSTROM
     98         33  H    CARTESIAN Y    -0.616993     -0.031038  KCAL/ANGSTROM
     99         33  H    CARTESIAN Z     1.878022      0.025387  KCAL/ANGSTROM
    100         34  H    CARTESIAN X     8.594048      0.150672  KCAL/ANGSTROM
    101         34  H    CARTESIAN Y     1.023838      0.001166  KCAL/ANGSTROM
    102         34  H    CARTESIAN Z     1.849925      0.015017  KCAL/ANGSTROM
    103         35  H    CARTESIAN X    -6.334609     -0.046269  KCAL/ANGSTROM
    104         35  H    CARTESIAN Y    -3.508772      0.141892  KCAL/ANGSTROM
    105         35  H    CARTESIAN Z    -2.296587      0.037856  KCAL/ANGSTROM
    106         36  H    CARTESIAN X    -7.178093      0.045445  KCAL/ANGSTROM
    107         36  H    CARTESIAN Y    -3.614073      0.256808  KCAL/ANGSTROM
    108         36  H    CARTESIAN Z    -0.881695     -0.020715  KCAL/ANGSTROM
    109         37  H    CARTESIAN X     3.106972      0.344482  KCAL/ANGSTROM
    110         37  H    CARTESIAN Y     1.681960     -0.073667  KCAL/ANGSTROM
    111         37  H    CARTESIAN Z     0.309940      0.058784  KCAL/ANGSTROM
    112         38  H    CARTESIAN X     5.528417      0.123743  KCAL/ANGSTROM
    113         38  H    CARTESIAN Y     1.983454      0.124504  KCAL/ANGSTROM
    114         38  H    CARTESIAN Z     0.230618     -0.025623  KCAL/ANGSTROM
    115         39  H    CARTESIAN X     6.053887      0.283600  KCAL/ANGSTROM
    116         39  H    CARTESIAN Y    -2.292520      0.099735  KCAL/ANGSTROM
    117         39  H    CARTESIAN Z    -0.315032     -0.089022  KCAL/ANGSTROM
    118         40  H    CARTESIAN X     3.617916      0.349024  KCAL/ANGSTROM
    119         40  H    CARTESIAN Y    -2.595474     -0.197398  KCAL/ANGSTROM
    120         40  H    CARTESIAN Z    -0.233554      0.047790  KCAL/ANGSTROM
    121         41  H    CARTESIAN X    -3.165140     -0.073955  KCAL/ANGSTROM
    122         41  H    CARTESIAN Y     1.379263     -0.113215  KCAL/ANGSTROM
    123         41  H    CARTESIAN Z    -1.929229     -0.145966  KCAL/ANGSTROM
    124         42  H    CARTESIAN X    -5.015570     -0.135466  KCAL/ANGSTROM
    125         42  H    CARTESIAN Y     0.085809      0.275827  KCAL/ANGSTROM
    126         42  H    CARTESIAN Z    -2.918197      0.153456  KCAL/ANGSTROM
    127         43  H    CARTESIAN X    -6.575948     -0.094703  KCAL/ANGSTROM
    128         43  H    CARTESIAN Y    -0.682824      0.453578  KCAL/ANGSTROM
    129         43  H    CARTESIAN Z     1.061239     -0.277832  KCAL/ANGSTROM
    130         44  H    CARTESIAN X    -4.700943     -0.113044  KCAL/ANGSTROM
    131         44  H    CARTESIAN Y     0.597489     -0.037963  KCAL/ANGSTROM
    132         44  H    CARTESIAN Z     2.029291      0.152537  KCAL/ANGSTROM




   ATOM   CHEMICAL          X               Y               Z
  NUMBER   SYMBOL      (ANGSTROMS)     (ANGSTROMS)     (ANGSTROMS)

     1       N          0.98896600  *   1.29236340  *   0.99599783  *
     2       N          1.79759275  *  -0.73784004  *   0.01056357  *
     3       N         -0.23025105  *   3.13435875  *   1.81248789  *
     4       N          8.16008806  *   0.15043405  *   1.55617350  *
     5       N         -6.58727389  *  -3.00782602  *  -1.44703818  *
     6       C         -1.38664813  *   1.27626392  *   0.70243855  *
     7       C         -0.23684694  *   1.95217596  *   1.19252478  *
     8       C          0.82135933  *   0.11770258  *   0.38327153  *
     9       C          3.19138543  *  -0.47784898  *   0.04313401  *
    10       C         -2.69121143  *   1.81641530  *   0.71228725  *
    11       C         -3.80874746  *   1.03662540  *   0.10908148  *
    12       C          3.74037146  *   0.80187301  *   0.17821937  *
    13       C          5.12152248  *   0.96692500  *   0.13213106  *
    14       C          5.96102153  *  -0.13346255  *  -0.04215426  *
    15       C          5.41091246  *  -1.41172999  *  -0.17338622  *
    16       C          4.03594340  *  -1.59181490  *  -0.13092927  *
    17       C         -3.90242458  *   0.90995993  *  -1.27527607  *
    18       C         -4.95300192  *   0.17789917  *  -1.82619175  *
    19       C         -5.89702338  *  -0.41874016  *  -0.99131267  *
    20       C         -5.81961490  *  -0.25403872  *   0.39195757  *
    21       C         -4.76843031  *   0.47266785  *   0.94672626  *
    22       O         -2.94350530  *   2.91378071  *   1.20508810  *
    23       O          8.30052052  *  -1.11778443  *  -0.66830009  *
    24       O          8.00217917  *   1.37575417  *  -0.68813583  *
    25       O         -7.24677365  *  -1.16739900  *  -3.11045081  *
    26       O         -8.37237373  *  -1.26765095  *  -0.86356511  *
    27       S         -0.93032069  *  -0.27593854  *   0.05347421  *
    28       S          7.68319444  *   0.07790144  *  -0.09725196  *
    29       S         -7.16484372  *  -1.40246644  *  -1.67140402  *
    30       H          1.52881837  *  -1.68383203  *  -0.32029126  *
    31       H          0.62223662  *   3.57088778  *   2.13616068  *
    32       H         -1.10480609  *   3.63225210  *   1.95937479  *
    33       H          8.74705425  *  -0.61699307  *   1.87802155  *
    34       H          8.59404756  *   1.02383818  *   1.84992514  *
    35       H         -6.33460872  *  -3.50877233  *  -2.29658741  *
    36       H         -7.17809312  *  -3.61407303  *  -0.88169531  *
    37       H          3.10697212  *   1.68196016  *   0.30994043  *
    38       H          5.52841680  *   1.98345362  *   0.23061837  *
    39       H          6.05388703  *  -2.29251960  *  -0.31503187  *
    40       H          3.61791647  *  -2.59547377  *  -0.23355377  *
    41       H         -3.16514020  *   1.37926344  *  -1.92922929  *
    42       H         -5.01557001  *   0.08580876  *  -2.91819651  *
    43       H         -6.57594835  *  -0.68282448  *   1.06123933  *
    44       H         -4.70094305  *   0.59748918  *   2.02929150  *

                             CARTESIAN COORDINATES

   1    N        0.988966001     1.292363399     0.995997828
   2    N        1.797592751    -0.737840035     0.010563573
   3    N       -0.230251051     3.134358753     1.812487892
   4    N        8.160088063     0.150434051     1.556173500
   5    N       -6.587273886    -3.007826016    -1.447038179
   6    C       -1.386648131     1.276263918     0.702438552
   7    C       -0.236846942     1.952175961     1.192524781
   8    C        0.821359335     0.117702575     0.383271525
   9    C        3.191385429    -0.477848982     0.043134007
  10    C       -2.691211434     1.816415301     0.712287249
  11    C       -3.808747461     1.036625402     0.109081480
  12    C        3.740371459     0.801873007     0.178219373
  13    C        5.121522482     0.966924996     0.132131059
  14    C        5.961021532    -0.133462549    -0.042154263
  15    C        5.410912458    -1.411729986    -0.173386217
  16    C        4.035943400    -1.591814904    -0.130929268
  17    C       -3.902424581     0.909959928    -1.275276071
  18    C       -4.953001917     0.177899170    -1.826191746
  19    C       -5.897023381    -0.418740157    -0.991312668
  20    C       -5.819614899    -0.254038716     0.391957568
  21    C       -4.768430312     0.472667853     0.946726259
  22    O       -2.943505300     2.913780710     1.205088102
  23    O        8.300520519    -1.117784434    -0.668300087
  24    O        8.002179173     1.375754166    -0.688135833
  25    O       -7.246773651    -1.167398995    -3.110450814
  26    O       -8.372373734    -1.267650946    -0.863565111
  27    S       -0.930320688    -0.275938540     0.053474205
  28    S        7.683194442     0.077901441    -0.097251963
  29    S       -7.164843721    -1.402466444    -1.671404016
  30    H        1.528818369    -1.683832028    -0.320291260
  31    H        0.622236617     3.570887777     2.136160680
  32    H       -1.104806086     3.632252104     1.959374790
  33    H        8.747054250    -0.616993072     1.878021551
  34    H        8.594047562     1.023838183     1.849925137
  35    H       -6.334608718    -3.508772333    -2.296587411
  36    H       -7.178093116    -3.614073032    -0.881695311
  37    H        3.106972120     1.681960162     0.309940433
  38    H        5.528416803     1.983453622     0.230618372
  39    H        6.053887032    -2.292519598    -0.315031869
  40    H        3.617916470    -2.595473775    -0.233553770
  41    H       -3.165140203     1.379263439    -1.929229289
  42    H       -5.015570012     0.085808762    -2.918196513
  43    H       -6.575948354    -0.682824480     1.061239325
  44    H       -4.700943050     0.597489185     2.029291496


           Empirical Formula: C16 H15 N5 O5 S3  =    44 atoms



      MOLECULAR POINT GROUP   :   C1  


                  EIGENVALUES  
 -38.38310 -37.80113 -35.87798 -35.81385 -35.79178 -31.48857 -31.05270 -30.69206
 -29.42319 -29.30092 -28.39972 -27.88701 -27.75893 -26.76726 -26.53292 -26.44159
 -26.17303 -24.72801 -23.67180 -22.53796 -22.21132 -21.68223 -21.42120 -20.47294
 -19.82726 -19.78617 -19.52680 -18.43479 -17.91602 -17.49835 -17.01488 -16.83431
 -16.68861 -16.60796 -16.38841 -16.29738 -16.17131 -16.05986 -15.93675 -15.71897
 -15.42377 -15.27730 -15.16895 -14.81041 -14.77729 -14.73696 -14.55035 -14.51100
 -14.41174 -14.02310 -13.89172 -13.72582 -13.67502 -13.12478 -12.88001 -12.80418
 -12.65556 -12.49971 -12.42516 -12.36051 -12.28348 -12.24218 -12.16616 -11.85461
 -11.81236 -11.33286 -11.11063 -10.88144 -10.82859 -10.74520 -10.71022 -10.55319
 -10.39400 -10.33326  -9.60490  -8.84029  -1.30057  -0.97746  -0.86698  -0.45941
  -0.38271  -0.25570  -0.22039   0.19623   0.23088   0.27586   0.62498   0.66836
   0.73667   0.78828   1.31718   1.37284   1.68703   1.79167   1.82362   2.16341
   2.38691   2.43991   2.54673   2.62548   2.73666   2.78336   2.92938   3.05747
   3.48271   3.60498   3.72747   3.83376   4.00210   4.07866   4.18455   4.21695
   4.26216   4.36689   4.38763   4.40318   4.42161   4.48204   4.49970   4.51255
   4.61559   4.63919   4.73200   4.75441   4.83183   5.22446   5.27239   5.29871
   5.39020   5.44112   5.51317   5.65194   5.67500   5.72406   5.79852   5.82313
   5.87662   5.90414   5.92415   5.97174   6.10358   6.17532   6.25274   6.67616
   6.69013   6.72192


              NET ATOMIC CHARGES AND DIPOLE CONTRIBUTIONS

  ATOM NO.   TYPE          CHARGE      No. of ELECS.   s-Pop       p-Pop       d-Pop       
    1          N          -0.633221        5.6332     1.77160     3.86162
    2          N          -0.432705        5.4327     1.52341     3.90930
    3          N          -0.471588        5.4716     1.50957     3.96202
    4          N          -0.928152        5.9282     1.66954     4.25861
    5          N          -0.933982        5.9340     1.66802     4.26596
    6          C          -0.642416        4.6424     1.05340     3.58902
    7          C           0.516146        3.4839     1.05370     2.43016
    8          C           0.384605        3.6154     1.10788     2.50751
    9          C           0.242927        3.7571     1.06510     2.69197
   10          C           0.559951        3.4400     1.08100     2.35905
   11          C          -0.081913        4.0819     1.08526     2.99665
   12          C          -0.251467        4.2515     1.08293     3.16853
   13          C          -0.003888        4.0039     1.09326     2.91063
   14          C          -0.439379        4.4394     1.10001     3.33937
   15          C          -0.007522        4.0075     1.09218     2.91534
   16          C          -0.262296        4.2623     1.08239     3.17991
   17          C          -0.160213        4.1602     1.08501     3.07520
   18          C          -0.052216        4.0522     1.09180     2.96041
   19          C          -0.382317        4.3823     1.10688     3.27543
   20          C          -0.056146        4.0561     1.09150     2.96465
   21          C          -0.154649        4.1546     1.08487     3.06978
   22          O          -0.639774        6.6398     1.88040     4.75937
   23          O          -1.025792        7.0258     1.89323     5.13256
   24          O          -1.020762        7.0208     1.89326     5.12751
   25          O          -1.013330        7.0133     1.89355     5.11978
   26          O          -1.012665        7.0127     1.89271     5.11996
   27          S           0.127110        5.8729     1.89270     3.84452     0.13567
   28          S           2.464912        3.5351     1.16216     1.91256     0.46037
   29          S           2.454775        3.5452     1.16323     1.91734     0.46466
   30          H           0.378042        0.6220     0.62196
   31          H           0.349841        0.6502     0.65016
   32          H           0.357066        0.6429     0.64293
   33          H           0.320465        0.6795     0.67954
   34          H           0.321644        0.6784     0.67836
   35          H           0.322465        0.6775     0.67754
   36          H           0.321725        0.6783     0.67827
   37          H           0.199822        0.8002     0.80018
   38          H           0.186489        0.8135     0.81351
   39          H           0.186793        0.8132     0.81321
   40          H           0.186582        0.8134     0.81342
   41          H           0.176662        0.8233     0.82334
   42          H           0.185964        0.8140     0.81404
   43          H           0.186087        0.8139     0.81391
   44          H           0.176319        0.8237     0.82368
 DIPOLE           X         Y         Z       TOTAL
 POINT-CHG.     6.029    -5.733     5.421     9.930
 HYBRID        -0.356     0.490    -0.042     0.607
 SUM            5.673    -5.243     5.379     9.413


          ATOMIC ORBITAL ELECTRON POPULATIONS

     Atom    s        px        py        pz      x^2-y^2     xz        z^2       yz        xy
    1  N   1.77160   1.29679   1.18200   1.38284
    2  N   1.52341   1.10537   1.24071   1.56322
    3  N   1.50957   1.25610   1.21568   1.49024
    4  N   1.66954   1.62855   1.27426   1.35580
    5  N   1.66802   1.61368   1.25272   1.39956
    6  C   1.05340   1.04808   1.09072   1.45021
    7  C   1.05370   0.83882   0.80852   0.78281
    8  C   1.10788   0.86845   0.82766   0.81140
    9  C   1.06510   0.78456   0.98677   0.92065
   10  C   1.08100   0.88046   0.78795   0.69064
   11  C   1.08526   1.00242   0.98967   1.00456
   12  C   1.08293   1.03512   1.04845   1.08496
   13  C   1.09326   0.97935   1.05765   0.87363
   14  C   1.10001   1.09346   1.03832   1.20759
   15  C   1.09218   1.00875   1.02756   0.87903
   16  C   1.08239   1.00756   1.07230   1.10005
   17  C   1.08501   1.04808   1.02218   1.00493
   18  C   1.09180   0.94483   0.93059   1.08499
   19  C   1.10688   1.10729   1.12599   1.04216
   20  C   1.09150   1.01601   0.95538   0.99326
   21  C   1.08487   0.97936   1.00020   1.09021
   22  O   1.88040   1.88045   1.34409   1.53484
   23  O   1.89323   1.79379   1.54834   1.79042
   24  O   1.89326   1.84878   1.49478   1.78394
   25  O   1.89355   1.85344   1.84998   1.41637
   26  O   1.89271   1.55708   1.85510   1.70778
   27  S   1.89270   0.91681   1.18781   1.73990   0.05208   0.02003   0.02576   0.02616   0.01166
   28  S   1.16216   0.70249   0.59573   0.61434   0.14560   0.04074   0.10224   0.08976   0.08203
   29  S   1.16323   0.64478   0.66125   0.61131   0.06962   0.12046   0.13080   0.06715   0.07663
   30  H   0.62196
   31  H   0.65016
   32  H   0.64293
   33  H   0.67954
   34  H   0.67836
   35  H   0.67754
   36  H   0.67827
   37  H   0.80018
   38  H   0.81351
   39  H   0.81321
   40  H   0.81342
   41  H   0.82334
   42  H   0.81404
   43  H   0.81391
   44  H   0.82368

 **********************
 *                    *
 * JOB ENDED NORMALLY *
 *                    *
 **********************



 TOTAL JOB TIME:             8.20 SECONDS

 == MOPAC DONE ==
