 *******************************************************************************
 **                                                                           **
 **                              MOPAC v23.2.2                                **
 **                                                                           **
 *******************************************************************************
 **          Digital Object Identifier (DOI): 10.5281/zenodo.6511958          **
 **    Visit the DOI location for information on how to cite this program.    **
 *******************************************************************************

                              PM7 CALCULATION RESULTS

 *******************************************************************************
 *  CALCULATION DONE: (MAX THREADS = 24)             Wed Mar 18 14:16:46 2026  *
 *  PM7        - The PM7 Hamiltonian to be used
 *
 *
 *
 *                 CHARGE ON SYSTEM = 0
 *
 *
 *
 *  EPS=78.4   - USE ANDREAS KLAMT'S COSMO IMPLICIT SOLVATION MODEL
 *  T=         - A TIME OF 172800.0 SECONDS REQUESTED
 *  DUMP=N     - RESTART FILE WRITTEN EVERY 7200.0 SECONDS REQUESTED
 *******************************************************************************
PM7 CHARGE=0 EPS=78.4


   ATOM   CHEMICAL          X               Y               Z
  NUMBER   SYMBOL      (ANGSTROMS)     (ANGSTROMS)     (ANGSTROMS)

     1       N          1.25800000  *  -0.68340000  *   1.20730000  *
     2       N          1.88560000  *  -0.15550000  *  -1.04560000  *
     3       N          0.20210000  *  -1.23010000  *   3.19330000  *
     4       N          8.01610000  *   2.06310000  *  -0.53420000  *
     5       N         -8.23330000  *   1.53710000  *   0.15840000  *
     6       C         -1.06070000  *  -0.94690000  *   1.15090000  *
     7       C          0.10530000  *  -0.96590000  *   1.88160000  *
     8       C          1.00540000  *  -0.46630000  *  -0.06370000  *
     9       C          3.28770000  *  -0.04750000  *  -0.99000000  *
    10       C         -2.40360000  *  -1.24590000  *   1.60030000  *
    11       C         -3.58230000  *  -0.64950000  *   0.91720000  *
    12       C          3.96740000  *   0.38090000  *  -2.14600000  *
    13       C          5.35720000  *   0.53460000  *  -2.16240000  *
    14       C          6.08830000  *   0.26830000  *  -1.00610000  *
    15       C          5.44480000  *  -0.16550000  *   0.15120000  *
    16       C          4.05250000  *  -0.31170000  *   0.15430000  *
    17       C         -4.68060000  *  -1.47320000  *   0.63290000  *
    18       C         -5.81020000  *  -0.94170000  *   0.00720000  *
    19       C         -5.84490000  *   0.41970000  *  -0.31030000  *
    20       C         -4.75780000  *   1.25090000  *  -0.01980000  *
    21       C         -3.62840000  *   0.71700000  *   0.60570000  *
    22       O         -2.64130000  *  -1.98660000  *   2.55580000  *
    23       O          8.31220000  *   0.35750000  *  -2.38310000  *
    24       O          8.40690000  *  -0.33400000  *   0.05230000  *
    25       O         -7.96090000  *   0.02260000  *  -1.81190000  *
    26       O         -6.88570000  *   2.31510000  *  -1.79720000  *
    27       S         -0.67110000  *  -0.59790000  *  -0.48070000  *
    28       S          7.84990000  *   0.45840000  *  -1.01950000  *
    29       S         -7.26260000  *   1.08900000  *  -1.13400000  *
    30       H          1.49660000  *  -0.03170000  *  -1.97170000  *
    31       H          1.12170000  *  -1.47540000  *   3.54530000  *
    32       H         -0.54850000  *  -1.75310000  *   3.64420000  *
    33       H          8.49970000  *   2.08480000  *   0.36540000  *
    34       H          7.13000000  *   2.56580000  *  -0.50040000  *
    35       H         -8.37960000  *   2.54710000  *   0.15120000  *
    36       H         -9.10000000  *   0.99820000  *   0.14640000  *
    37       H          3.41510000  *   0.59970000  *  -3.05770000  *
    38       H          5.85490000  *   0.85760000  *  -3.07480000  *
    39       H          6.00750000  *  -0.39620000  *   1.05340000  *
    40       H          3.58380000  *  -0.65040000  *   1.07430000  *
    41       H         -4.65640000  *  -2.52940000  *   0.89670000  *
    42       H         -6.65410000  *  -1.58900000  *  -0.22300000  *
    43       H         -4.78660000  *   2.30990000  *  -0.26930000  *
    44       H         -2.80000000  *   1.37650000  *   0.85590000  *



          CARTESIAN COORDINATES 

    NO.       ATOM           X           Y           Z

     1         N          1.2580     -0.6834      1.2073
     2         N          1.8856     -0.1555     -1.0456
     3         N          0.2021     -1.2301      3.1933
     4         N          8.0161      2.0631     -0.5342
     5         N         -8.2333      1.5371      0.1584
     6         C         -1.0607     -0.9469      1.1509
     7         C          0.1053     -0.9659      1.8816
     8         C          1.0054     -0.4663     -0.0637
     9         C          3.2877     -0.0475     -0.9900
    10         C         -2.4036     -1.2459      1.6003
    11         C         -3.5823     -0.6495      0.9172
    12         C          3.9674      0.3809     -2.1460
    13         C          5.3572      0.5346     -2.1624
    14         C          6.0883      0.2683     -1.0061
    15         C          5.4448     -0.1655      0.1512
    16         C          4.0525     -0.3117      0.1543
    17         C         -4.6806     -1.4732      0.6329
    18         C         -5.8102     -0.9417      0.0072
    19         C         -5.8449      0.4197     -0.3103
    20         C         -4.7578      1.2509     -0.0198
    21         C         -3.6284      0.7170      0.6057
    22         O         -2.6413     -1.9866      2.5558
    23         O          8.3122      0.3575     -2.3831
    24         O          8.4069     -0.3340      0.0523
    25         O         -7.9609      0.0226     -1.8119
    26         O         -6.8857      2.3151     -1.7972
    27         S         -0.6711     -0.5979     -0.4807
    28         S          7.8499      0.4584     -1.0195
    29         S         -7.2626      1.0890     -1.1340
    30         H          1.4966     -0.0317     -1.9717
    31         H          1.1217     -1.4754      3.5453
    32         H         -0.5485     -1.7531      3.6442
    33         H          8.4997      2.0848      0.3654
    34         H          7.1300      2.5658     -0.5004
    35         H         -8.3796      2.5471      0.1512
    36         H         -9.1000      0.9982      0.1464
    37         H          3.4151      0.5997     -3.0577
    38         H          5.8549      0.8576     -3.0748
    39         H          6.0075     -0.3962      1.0534
    40         H          3.5838     -0.6504      1.0743
    41         H         -4.6564     -2.5294      0.8967
    42         H         -6.6541     -1.5890     -0.2230
    43         H         -4.7866      2.3099     -0.2693
    44         H         -2.8000      1.3765      0.8559

 General Reference for PM7:
 "Optimization of Parameters for Semiempirical Methods VI: More Modifications to the 
 NDDO Approximations and Re-optimization of Parameters", J. J. P. Stewart, J. Mol. Mod., 1:32, 19 (2013)
 https://link.springer.com/article/10.1007/s00894-012-1667-x

           Empirical Formula: C16 H15 N5 O5 S3  =    44 atoms



      MOLECULAR POINT GROUP   :   C1  


      RHF CALCULATION, NO. OF DOUBLY OCCUPIED LEVELS = 76


          Geometry optimization using L-BFGS
 CYCLE:     1 TIME:   0.137 TIME LEFT:  2.00D  GRAD.:   163.575 HEAT: -140.2151
 CYCLE:     2 TIME:   0.047 TIME LEFT:  2.00D  GRAD.:   160.896 HEAT: -140.4912
 CYCLE:     3 TIME:   0.059 TIME LEFT:  2.00D  GRAD.:    53.746 HEAT: -150.6215
 CYCLE:     4 TIME:   0.055 TIME LEFT:  2.00D  GRAD.:   161.128 HEAT: -140.4913
 CYCLE:     5 TIME:   0.055 TIME LEFT:  2.00D  GRAD.:    53.860 HEAT: -150.6168
 CYCLE:     6 TIME:   0.047 TIME LEFT:  2.00D  GRAD.:    46.221 HEAT: -152.0397
 CYCLE:     7 TIME:   0.047 TIME LEFT:  2.00D  GRAD.:    38.872 HEAT: -153.3359
 CYCLE:     8 TIME:   0.055 TIME LEFT:  2.00D  GRAD.:    69.924 HEAT: -154.5164
 CYCLE:     9 TIME:   0.047 TIME LEFT:  2.00D  GRAD.:    31.338 HEAT: -155.2706
 CYCLE:    10 TIME:   0.047 TIME LEFT:  2.00D  GRAD.:    20.295 HEAT: -155.6549
 CYCLE:    11 TIME:   0.047 TIME LEFT:  2.00D  GRAD.:    14.871 HEAT: -156.1206
 CYCLE:    12 TIME:   0.047 TIME LEFT:  2.00D  GRAD.:    22.457 HEAT: -156.4151
 CYCLE:    13 TIME:   0.047 TIME LEFT:  2.00D  GRAD.:    14.700 HEAT: -156.8728
 CYCLE:    14 TIME:   0.047 TIME LEFT:  2.00D  GRAD.:    14.119 HEAT: -157.0281
 CYCLE:    15 TIME:   0.051 TIME LEFT:  2.00D  GRAD.:    21.411 HEAT: -157.1220
 CYCLE:    16 TIME:   0.043 TIME LEFT:  2.00D  GRAD.:    12.549 HEAT: -157.1978
 CYCLE:    17 TIME:   0.051 TIME LEFT:  2.00D  GRAD.:    10.941 HEAT: -157.2677
 CYCLE:    18 TIME:   0.047 TIME LEFT:  2.00D  GRAD.:    10.811 HEAT: -157.3809
 CYCLE:    19 TIME:   0.047 TIME LEFT:  2.00D  GRAD.:    21.494 HEAT: -157.5890
 CYCLE:    20 TIME:   0.047 TIME LEFT:  2.00D  GRAD.:     8.628 HEAT: -157.7259
 CYCLE:    21 TIME:   0.043 TIME LEFT:  2.00D  GRAD.:     7.948 HEAT: -157.7639
 CYCLE:    22 TIME:   0.047 TIME LEFT:  2.00D  GRAD.:     9.449 HEAT: -157.7533
 CYCLE:    23 TIME:   0.047 TIME LEFT:  2.00D  GRAD.:    20.962 HEAT: -157.8585
 CYCLE:    24 TIME:   0.043 TIME LEFT:  2.00D  GRAD.:     8.654 HEAT: -158.0157
 CYCLE:    25 TIME:   0.047 TIME LEFT:  2.00D  GRAD.:     6.803 HEAT: -158.0303
 CYCLE:    26 TIME:   0.047 TIME LEFT:  2.00D  GRAD.:     8.980 HEAT: -158.0995
 CYCLE:    27 TIME:   0.051 TIME LEFT:  2.00D  GRAD.:    15.618 HEAT: -158.2045
 CYCLE:    28 TIME:   0.043 TIME LEFT:  2.00D  GRAD.:     7.200 HEAT: -158.3682
 CYCLE:    29 TIME:   0.047 TIME LEFT:  2.00D  GRAD.:     6.133 HEAT: -158.3954
 CYCLE:    30 TIME:   0.043 TIME LEFT:  2.00D  GRAD.:     6.644 HEAT: -158.4429
 CYCLE:    31 TIME:   0.047 TIME LEFT:  2.00D  GRAD.:    11.394 HEAT: -158.5604
 CYCLE:    32 TIME:   0.051 TIME LEFT:  2.00D  GRAD.:     8.108 HEAT: -158.5180
 CYCLE:    33 TIME:   0.043 TIME LEFT:  2.00D  GRAD.:     5.149 HEAT: -158.5473
 CYCLE:    34 TIME:   0.047 TIME LEFT:  2.00D  GRAD.:     5.672 HEAT: -158.5458
 CYCLE:    35 TIME:   0.047 TIME LEFT:  2.00D  GRAD.:     9.909 HEAT: -158.5816
 CYCLE:    36 TIME:   0.047 TIME LEFT:  2.00D  GRAD.:     6.298 HEAT: -158.6425
 CYCLE:    37 TIME:   0.043 TIME LEFT:  2.00D  GRAD.:     5.944 HEAT: -158.6638
 CYCLE:    38 TIME:   0.047 TIME LEFT:  2.00D  GRAD.:     7.587 HEAT: -158.6725
 CYCLE:    39 TIME:   0.051 TIME LEFT:  2.00D  GRAD.:     9.488 HEAT: -158.7404
 CYCLE:    40 TIME:   0.047 TIME LEFT:  2.00D  GRAD.:    11.158 HEAT: -159.0067
 CYCLE:    41 TIME:   0.043 TIME LEFT:  2.00D  GRAD.:     6.959 HEAT: -158.9719
 CYCLE:    42 TIME:   0.047 TIME LEFT:  2.00D  GRAD.:     4.812 HEAT: -158.9961
 CYCLE:    43 TIME:   0.047 TIME LEFT:  2.00D  GRAD.:     5.025 HEAT: -159.0086
 CYCLE:    44 TIME:   0.047 TIME LEFT:  2.00D  GRAD.:     8.411 HEAT: -159.0522
 CYCLE:    45 TIME:   0.047 TIME LEFT:  2.00D  GRAD.:     9.219 HEAT: -159.0111
 CYCLE:    46 TIME:   0.047 TIME LEFT:  2.00D  GRAD.:     7.209 HEAT: -159.0533
 CYCLE:    47 TIME:   0.051 TIME LEFT:  2.00D  GRAD.:     7.676 HEAT: -159.1241
 CYCLE:    48 TIME:   0.047 TIME LEFT:  2.00D  GRAD.:     9.500 HEAT: -159.2193
 CYCLE:    49 TIME:   0.047 TIME LEFT:  2.00D  GRAD.:     9.606 HEAT: -159.2315
 CYCLE:    50 TIME:   0.043 TIME LEFT:  2.00D  GRAD.:     5.706 HEAT: -159.3000
 CYCLE:    51 TIME:   0.047 TIME LEFT:  2.00D  GRAD.:     5.917 HEAT: -159.3006
 CYCLE:    52 TIME:   0.047 TIME LEFT:  2.00D  GRAD.:     6.375 HEAT: -159.3539
 CYCLE:    53 TIME:   0.047 TIME LEFT:  2.00D  GRAD.:    16.433 HEAT: -159.3517
 CYCLE:    54 TIME:   0.043 TIME LEFT:  2.00D  GRAD.:     6.192 HEAT: -159.4179
 CYCLE:    55 TIME:   0.047 TIME LEFT:  2.00D  GRAD.:     4.175 HEAT: -159.4287
 CYCLE:    56 TIME:   0.047 TIME LEFT:  2.00D  GRAD.:     5.295 HEAT: -159.4626
 CYCLE:    57 TIME:   0.047 TIME LEFT:  2.00D  GRAD.:     6.637 HEAT: -159.6261
 CYCLE:    58 TIME:   0.047 TIME LEFT:  2.00D  GRAD.:    13.680 HEAT: -159.5868
 CYCLE:    59 TIME:   0.047 TIME LEFT:  2.00D  GRAD.:     5.293 HEAT: -159.6586
 CYCLE:    60 TIME:   0.043 TIME LEFT:  2.00D  GRAD.:     4.429 HEAT: -159.6864
 CYCLE:    61 TIME:   0.047 TIME LEFT:  2.00D  GRAD.:     6.383 HEAT: -159.6986
 CYCLE:    62 TIME:   0.051 TIME LEFT:  2.00D  GRAD.:     9.876 HEAT: -159.7035
 CYCLE:    63 TIME:   0.047 TIME LEFT:  2.00D  GRAD.:    12.568 HEAT: -159.7160
 CYCLE:    64 TIME:   0.047 TIME LEFT:  2.00D  GRAD.:     5.983 HEAT: -159.7801
 CYCLE:    65 TIME:   0.047 TIME LEFT:  2.00D  GRAD.:     5.592 HEAT: -159.8427
 CYCLE:    66 TIME:   0.043 TIME LEFT:  2.00D  GRAD.:     5.823 HEAT: -159.8225
 CYCLE:    67 TIME:   0.051 TIME LEFT:  2.00D  GRAD.:     8.909 HEAT: -160.1329
 CYCLE:    68 TIME:   0.047 TIME LEFT:  2.00D  GRAD.:    11.650 HEAT: -160.0951
 CYCLE:    69 TIME:   0.047 TIME LEFT:  2.00D  GRAD.:     7.231 HEAT: -160.1710
 CYCLE:    70 TIME:   0.047 TIME LEFT:  2.00D  GRAD.:     6.732 HEAT: -160.2212
 CYCLE:    71 TIME:   0.047 TIME LEFT:  2.00D  GRAD.:     6.997 HEAT: -160.2373
 CYCLE:    72 TIME:   0.047 TIME LEFT:  2.00D  GRAD.:     9.906 HEAT: -160.3303
 CYCLE:    73 TIME:   0.047 TIME LEFT:  2.00D  GRAD.:    15.478 HEAT: -160.3335
 CYCLE:    74 TIME:   0.043 TIME LEFT:  2.00D  GRAD.:     7.848 HEAT: -160.3945
 CYCLE:    75 TIME:   0.051 TIME LEFT:  2.00D  GRAD.:     5.731 HEAT: -160.4204
 CYCLE:    76 TIME:   0.047 TIME LEFT:  2.00D  GRAD.:     7.102 HEAT: -160.3307
 CYCLE:    77 TIME:   0.051 TIME LEFT:  2.00D  GRAD.:    14.068 HEAT: -160.1709
 CYCLE:    78 TIME:   0.047 TIME LEFT:  2.00D  GRAD.:    27.764 HEAT: -160.0700
 CYCLE:    79 TIME:   0.047 TIME LEFT:  2.00D  GRAD.:    21.279 HEAT: -160.2671
 CYCLE:    80 TIME:   0.047 TIME LEFT:  2.00D  GRAD.:     6.186 HEAT: -160.2854
 CYCLE:    81 TIME:   0.047 TIME LEFT:  2.00D  GRAD.:     5.147 HEAT: -160.2928
 CYCLE:    82 TIME:   0.043 TIME LEFT:  2.00D  GRAD.:     5.669 HEAT: -160.1968
 CYCLE:    83 TIME:   0.047 TIME LEFT:  2.00D  GRAD.:    21.019 HEAT: -160.2886
 CYCLE:    84 TIME:   0.047 TIME LEFT:  2.00D  GRAD.:     7.606 HEAT: -160.3556
 CYCLE:    85 TIME:   0.043 TIME LEFT:  2.00D  GRAD.:     5.790 HEAT: -160.3492
 CYCLE:    86 TIME:   0.051 TIME LEFT:  2.00D  GRAD.:     8.120 HEAT: -160.4675
 CYCLE:    87 TIME:   0.047 TIME LEFT:  2.00D  GRAD.:    11.864 HEAT: -160.3946
 CYCLE:    88 TIME:   0.047 TIME LEFT:  2.00D  GRAD.:    13.946 HEAT: -160.4343
 CYCLE:    89 TIME:   0.047 TIME LEFT:  2.00D  GRAD.:    16.530 HEAT: -160.4226
 CYCLE:    90 TIME:   0.043 TIME LEFT:  2.00D  GRAD.:     7.060 HEAT: -160.5573
 CYCLE:    91 TIME:   0.047 TIME LEFT:  2.00D  GRAD.:     4.266 HEAT: -160.6113
 CYCLE:    92 TIME:   0.043 TIME LEFT:  2.00D  GRAD.:     5.011 HEAT: -160.5428
 CYCLE:    93 TIME:   0.047 TIME LEFT:  2.00D  GRAD.:     8.702 HEAT: -160.5244
 CYCLE:    94 TIME:   0.051 TIME LEFT:  2.00D  GRAD.:    10.030 HEAT: -160.4177
 CYCLE:    95 TIME:   0.043 TIME LEFT:  2.00D  GRAD.:     7.225 HEAT: -160.5196
 CYCLE:    96 TIME:   0.043 TIME LEFT:  2.00D  GRAD.:     5.206 HEAT: -160.4948
 CYCLE:    97 TIME:   0.047 TIME LEFT:  2.00D  GRAD.:     6.421 HEAT: -160.5192
 CYCLE:    98 TIME:   0.043 TIME LEFT:  2.00D  GRAD.:     7.807 HEAT: -160.5885
 CYCLE:    99 TIME:   0.051 TIME LEFT:  2.00D  GRAD.:     9.972 HEAT: -160.6843
 CYCLE:   100 TIME:   0.043 TIME LEFT:  2.00D  GRAD.:     5.701 HEAT: -160.6775
 CYCLE:   101 TIME:   0.047 TIME LEFT:  2.00D  GRAD.:     3.717 HEAT: -160.6414
 CYCLE:   102 TIME:   0.047 TIME LEFT:  2.00D  GRAD.:     5.190 HEAT: -160.7060
 CYCLE:   103 TIME:   0.043 TIME LEFT:  2.00D  GRAD.:     5.344 HEAT: -160.7348
 CYCLE:   104 TIME:   0.043 TIME LEFT:  2.00D  GRAD.:     3.946 HEAT: -160.7480
 CYCLE:   105 TIME:   0.051 TIME LEFT:  2.00D  GRAD.:     5.954 HEAT: -160.8854
 CYCLE:   106 TIME:   0.043 TIME LEFT:  2.00D  GRAD.:     4.361 HEAT: -160.9129
 CYCLE:   107 TIME:   0.047 TIME LEFT:  2.00D  GRAD.:     2.963 HEAT: -160.9382
 CYCLE:   108 TIME:   0.043 TIME LEFT:  2.00D  GRAD.:     4.055 HEAT: -160.9062
 CYCLE:   109 TIME:   0.043 TIME LEFT:  2.00D  GRAD.:     3.991 HEAT: -160.9047
 CYCLE:   110 TIME:   0.047 TIME LEFT:  2.00D  GRAD.:     3.236 HEAT: -160.8774
 CYCLE:   111 TIME:   0.047 TIME LEFT:  2.00D  GRAD.:     6.759 HEAT: -160.8821
 CYCLE:   112 TIME:   0.043 TIME LEFT:  2.00D  GRAD.:     3.774 HEAT: -160.8225
 CYCLE:   113 TIME:   0.047 TIME LEFT:  2.00D  GRAD.:     3.219 HEAT: -160.8502
 CYCLE:   114 TIME:   0.043 TIME LEFT:  2.00D  GRAD.:     2.982 HEAT: -160.8586
 CYCLE:   115 TIME:   0.047 TIME LEFT:  2.00D  GRAD.:     7.049 HEAT: -160.9030
 CYCLE:   116 TIME:   0.047 TIME LEFT:  2.00D  GRAD.:     2.824 HEAT: -160.9166
 CYCLE:   117 TIME:   0.043 TIME LEFT:  2.00D  GRAD.:     2.845 HEAT: -160.9026
 CYCLE:   118 TIME:   0.047 TIME LEFT:  2.00D  GRAD.:     3.799 HEAT: -160.9175
 CYCLE:   119 TIME:   0.047 TIME LEFT:  2.00D  GRAD.:     8.144 HEAT: -160.8998
 CYCLE:   120 TIME:   0.047 TIME LEFT:  2.00D  GRAD.:     4.250 HEAT: -160.8450
 CYCLE:   121 TIME:   0.043 TIME LEFT:  2.00D  GRAD.:     2.831 HEAT: -160.8726
 CYCLE:   122 TIME:   0.047 TIME LEFT:  2.00D  GRAD.:     3.489 HEAT: -160.8656
 CYCLE:   123 TIME:   0.047 TIME LEFT:  2.00D  GRAD.:     4.962 HEAT: -160.9677
 CYCLE:   124 TIME:   0.043 TIME LEFT:  2.00D  GRAD.:     6.025 HEAT: -160.8750
 CYCLE:   125 TIME:   0.047 TIME LEFT:  2.00D  GRAD.:     3.052 HEAT: -160.8680
 CYCLE:   126 TIME:   0.043 TIME LEFT:  2.00D  GRAD.:     3.045 HEAT: -160.9253
 CYCLE:   127 TIME:   0.051 TIME LEFT:  2.00D  GRAD.:     3.724 HEAT: -160.9477
 CYCLE:   128 TIME:   0.043 TIME LEFT:  2.00D  GRAD.:     5.011 HEAT: -160.9486
 CYCLE:   129 TIME:   0.047 TIME LEFT:  2.00D  GRAD.:     4.151 HEAT: -161.0535
 CYCLE:   130 TIME:   0.047 TIME LEFT:  2.00D  GRAD.:     6.207 HEAT: -161.0422
 CYCLE:   131 TIME:   0.043 TIME LEFT:  2.00D  GRAD.:     3.697 HEAT: -161.1263
 CYCLE:   132 TIME:   0.043 TIME LEFT:  2.00D  GRAD.:     3.728 HEAT: -161.1383
 CYCLE:   133 TIME:   0.047 TIME LEFT:  2.00D  GRAD.:     3.980 HEAT: -161.0513
 CYCLE:   134 TIME:   0.051 TIME LEFT:  2.00D  GRAD.:     7.348 HEAT: -161.0560
 CYCLE:   135 TIME:   0.043 TIME LEFT:  2.00D  GRAD.:     3.677 HEAT: -161.1084
 CYCLE:   136 TIME:   0.043 TIME LEFT:  2.00D  GRAD.:     3.308 HEAT: -161.0976
 CYCLE:   137 TIME:   0.051 TIME LEFT:  2.00D  GRAD.:     4.312 HEAT: -161.0676
 CYCLE:   138 TIME:   0.043 TIME LEFT:  2.00D  GRAD.:     8.911 HEAT: -161.1688
 CYCLE:   139 TIME:   0.043 TIME LEFT:  2.00D  GRAD.:     3.150 HEAT: -161.1195
 CYCLE:   140 TIME:   0.047 TIME LEFT:  2.00D  GRAD.:     2.438 HEAT: -161.0758
 CYCLE:   141 TIME:   0.043 TIME LEFT:  2.00D  GRAD.:     3.487 HEAT: -161.0687
 CYCLE:   142 TIME:   0.047 TIME LEFT:  2.00D  GRAD.:     3.105 HEAT: -161.1019
 CYCLE:   143 TIME:   0.043 TIME LEFT:  2.00D  GRAD.:     4.442 HEAT: -161.0689
 CYCLE:   144 TIME:   0.047 TIME LEFT:  2.00D  GRAD.:     2.101 HEAT: -161.1004
 CYCLE:   145 TIME:   0.043 TIME LEFT:  2.00D  GRAD.:     1.886 HEAT: -161.0922
 CYCLE:   146 TIME:   0.051 TIME LEFT:  2.00D  GRAD.:     3.048 HEAT: -161.0697
 CYCLE:   147 TIME:   0.043 TIME LEFT:  2.00D  GRAD.:     2.102 HEAT: -161.0787
 CYCLE:   148 TIME:   0.047 TIME LEFT:  2.00D  GRAD.:     1.718 HEAT: -161.1011
 CYCLE:   149 TIME:   0.043 TIME LEFT:  2.00D  GRAD.:     1.159 HEAT: -161.0905
 CYCLE:   150 TIME:   0.051 TIME LEFT:  2.00D  GRAD.:     3.322 HEAT: -161.1791
 CYCLE:   151 TIME:   0.043 TIME LEFT:  2.00D  GRAD.:     1.768 HEAT: -161.0753
 CYCLE:   152 TIME:   0.047 TIME LEFT:  2.00D  GRAD.:     1.057 HEAT: -161.0779
 CYCLE:   153 TIME:   0.047 TIME LEFT:  2.00D  GRAD.:     1.514 HEAT: -161.1263
 CYCLE:   154 TIME:   0.051 TIME LEFT:  2.00D  GRAD.:     2.317 HEAT: -161.1617
 CYCLE:   155 TIME:   0.047 TIME LEFT:  2.00D  GRAD.:     1.310 HEAT: -161.1557
 CYCLE:   156 TIME:   0.047 TIME LEFT:  2.00D  GRAD.:     1.092 HEAT: -161.1573
 CYCLE:   157 TIME:   0.047 TIME LEFT:  2.00D  GRAD.:     1.386 HEAT: -161.1654
 CYCLE:   158 TIME:   0.047 TIME LEFT:  2.00D  GRAD.:     2.169 HEAT: -161.2085
 CYCLE:   159 TIME:   0.047 TIME LEFT:  2.00D  GRAD.:     1.232 HEAT: -161.2364
 CYCLE:   160 TIME:   0.047 TIME LEFT:  2.00D  GRAD.:     0.994 HEAT: -161.2375

 -------------------------------------------------------------------------------
 PM7 CHARGE=0 EPS=78.4




     HERBERTS TEST WAS SATISFIED IN BFGS                      
     SCF FIELD WAS ACHIEVED                                   


                              PM7 CALCULATION
                                                       MOPAC v23.2.2 Linux
                                                       Wed Mar 18 14:16:54 2026




          FINAL HEAT OF FORMATION =       -161.23754 KCAL/MOL =    -674.61786 KJ/MOL
          VAN DER WAALS AREA      =        414.09 SQUARE ANGSTROMS



          DIELECTRIC ENERGY       =         -2.59222 EV
          COSMO AREA              =        414.09 SQUARE ANGSTROMS
          COSMO VOLUME            =        462.43 CUBIC ANGSTROMS

          GRADIENT NORM           =          0.99353          =       0.14978 PER ATOM
          IONIZATION POTENTIAL    =          8.783285 EV
          HOMO LUMO ENERGIES (EV) =         -8.783 -1.277
          NO. OF FILLED LEVELS    =         76
          MOLECULAR WEIGHT        =        453.5050         POINT GROUP:  C1  

          MOLECULAR DIMENSIONS (Angstroms)

            Atom       Atom       Distance
            H    36    H    33    17.94546
            H    31    O    26     7.77361
            H    42    H    44     3.68578


          SCF CALCULATIONS        =        162

          WALL-CLOCK TIME         =      7.562 SECONDS
          COMPUTATION TIME        =          3 MINUTES AND 1.187 SECONDS




   ATOM   CHEMICAL          X               Y               Z
  NUMBER   SYMBOL      (ANGSTROMS)     (ANGSTROMS)     (ANGSTROMS)

     1       N          1.27006496  *  -0.94245620  *   1.06778191  *
     2       N          1.88475049  *  -0.22484127  *  -1.13734368  *
     3       N          0.22515425  *  -1.56712098  *   3.08319885  *
     4       N          7.94360321  *   2.16615399  *  -0.91693390  *
     5       N         -8.37780268  *   1.34209048  *   0.15745349  *
     6       C         -1.11679264  *  -0.82968245  *   1.16356961  *
     7       C          0.10196616  *  -1.13103287  *   1.82714736  *
     8       C          0.99093385  *  -0.52634018  *  -0.16886963  *
     9       C          3.29123628  *  -0.14696871  *  -0.99023428  *
    10       C         -2.38859412  *  -0.87156693  *   1.77359498  *
    11       C         -3.58146568  *  -0.41720516  *   1.00307223  *
    12       C          3.99801782  *   0.30495420  *  -2.12390663  *
    13       C          5.37217288  *   0.47157135  *  -2.05674970  *
    14       C          6.06131925  *   0.19269935  *  -0.87141921  *
    15       C          5.36410776  *  -0.28834712  *   0.23525385  *
    16       C          3.98382973  *  -0.46595363  *   0.18182245  *
    17       C         -4.48106814  *  -1.35827442  *   0.50995672  *
    18       C         -5.62292516  *  -0.92754480  *  -0.16425463  *
    19       C         -5.85496167  *   0.43693582  *  -0.33422907  *
    20       C         -4.94114935  *   1.37457306  *   0.14802357  *
    21       C         -3.79955714  *   0.94708999  *   0.82272061  *
    22       O         -2.55453433  *  -1.25754000  *   2.92928463  *
    23       O          8.42566639  *  -0.11263318  *  -1.95795534  *
    24       O          8.25843655  *   0.05893991  *   0.53844815  *
    25       O         -7.87837543  *  -0.12596038  *  -1.89623345  *
    26       O         -7.03000361  *   2.23495511  *  -1.83231234  *
    27       S         -0.79985416  *  -0.36429063  *  -0.48561123  *
    28       S          7.77308580  *   0.45872751  *  -0.78028785  *
    29       S         -7.30408236  *   0.98038772  *  -1.13735761  *
    30       H          1.52171477  *   0.02407788  *  -2.07755569  *
    31       H          1.12545977  *  -1.75398471  *   3.50571919  *
    32       H         -0.60481660  *  -1.69896357  *   3.65475966  *
    33       H          8.59585625  *   2.48609299  *  -1.63028892  *
    34       H          8.14667281  *   2.66256417  *  -0.05204649  *
    35       H         -8.74578467  *   2.29125727  *   0.17167573  *
    36       H         -9.15872570  *   0.69767804  *   0.27127257  *
    37       H          3.46836400  *   0.53243736  *  -3.05155617  *
    38       H          5.90238567  *   0.83043275  *  -2.94911580  *
    39       H          5.88405309  *  -0.53374971  *   1.17329029  *
    40       H          3.46880957  *  -0.84928757  *   1.06561520  *
    41       H         -4.30197465  *  -2.42524192  *   0.65449990  *
    42       H         -6.32636941  *  -1.67928949  *  -0.54549874  *
    43       H         -5.09915330  *   2.45169456  *   0.01011330  *
    44       H         -3.08971898  *   1.67987618  *   1.21149274  *

                             CARTESIAN COORDINATES

   1    N        1.270064958    -0.942456199     1.067781912
   2    N        1.884750489    -0.224841266    -1.137343680
   3    N        0.225154251    -1.567120977     3.083198854
   4    N        7.943603206     2.166153993    -0.916933902
   5    N       -8.377802679     1.342090480     0.157453485
   6    C       -1.116792642    -0.829682449     1.163569611
   7    C        0.101966155    -1.131032870     1.827147358
   8    C        0.990933850    -0.526340177    -0.168869632
   9    C        3.291236275    -0.146968712    -0.990234276
  10    C       -2.388594124    -0.871566927     1.773594984
  11    C       -3.581465683    -0.417205159     1.003072232
  12    C        3.998017821     0.304954195    -2.123906634
  13    C        5.372172884     0.471571351    -2.056749702
  14    C        6.061319254     0.192699354    -0.871419206
  15    C        5.364107756    -0.288347125     0.235253847
  16    C        3.983829731    -0.465953628     0.181822449
  17    C       -4.481068142    -1.358274419     0.509956717
  18    C       -5.622925162    -0.927544805    -0.164254628
  19    C       -5.854961667     0.436935816    -0.334229072
  20    C       -4.941149350     1.374573059     0.148023567
  21    C       -3.799557136     0.947089986     0.822720614
  22    O       -2.554534325    -1.257539996     2.929284626
  23    O        8.425666393    -0.112633176    -1.957955342
  24    O        8.258436546     0.058939907     0.538448155
  25    O       -7.878375433    -0.125960377    -1.896233446
  26    O       -7.030003609     2.234955113    -1.832312338
  27    S       -0.799854161    -0.364290630    -0.485611231
  28    S        7.773085797     0.458727508    -0.780287855
  29    S       -7.304082356     0.980387717    -1.137357614
  30    H        1.521714774     0.024077877    -2.077555691
  31    H        1.125459769    -1.753984715     3.505719193
  32    H       -0.604816604    -1.698963569     3.654759661
  33    H        8.595856249     2.486092992    -1.630288922
  34    H        8.146672809     2.662564169    -0.052046490
  35    H       -8.745784672     2.291257267     0.171675732
  36    H       -9.158725697     0.697678039     0.271272566
  37    H        3.468363995     0.532437355    -3.051556169
  38    H        5.902385667     0.830432748    -2.949115802
  39    H        5.884053095    -0.533749705     1.173290285
  40    H        3.468809567    -0.849287566     1.065615200
  41    H       -4.301974652    -2.425241923     0.654499900
  42    H       -6.326369407    -1.679289491    -0.545498738
  43    H       -5.099153305     2.451694559     0.010113299
  44    H       -3.089718978     1.679876178     1.211492735


           Empirical Formula: C16 H15 N5 O5 S3  =    44 atoms



      MOLECULAR POINT GROUP   :   C1  


                  EIGENVALUES  
 -38.35937 -37.77473 -35.85621 -35.79817 -35.78941 -31.48116 -31.02649 -30.66760
 -29.40597 -29.31134 -28.36952 -27.86184 -27.71333 -26.75531 -26.51455 -26.44077
 -26.18015 -24.68679 -23.66233 -22.50779 -22.22842 -21.68671 -21.39332 -20.43137
 -19.82354 -19.77290 -19.49869 -18.43134 -17.88344 -17.46864 -16.96144 -16.81437
 -16.75721 -16.57391 -16.40332 -16.32781 -16.13172 -15.99057 -15.87077 -15.76912
 -15.35297 -15.25239 -15.15214 -14.81017 -14.76316 -14.74366 -14.57479 -14.49937
 -14.37380 -14.01117 -13.88599 -13.72299 -13.66372 -13.11371 -12.88324 -12.78004
 -12.63681 -12.49763 -12.38725 -12.36186 -12.26611 -12.24021 -12.14866 -11.84569
 -11.78413 -11.30666 -11.07196 -10.85053 -10.82902 -10.71849 -10.68800 -10.55124
 -10.38168 -10.33503  -9.57937  -8.78328  -1.27663  -0.93091  -0.84629  -0.41501
  -0.33227  -0.25881  -0.20201   0.25265   0.26953   0.29446   0.58017   0.71111
   0.77140   0.83161   1.33887   1.39628   1.69704   1.81776   1.85030   2.18931
   2.37296   2.44141   2.54773   2.67408   2.75522   2.79402   2.93834   3.06806
   3.49654   3.62377   3.72682   3.83948   4.01824   4.10232   4.20164   4.22546
   4.28472   4.38181   4.40060   4.41287   4.44806   4.48206   4.51802   4.52899
   4.63638   4.65263   4.75652   4.77617   4.83802   5.23854   5.29158   5.32482
   5.36800   5.44652   5.52525   5.65116   5.67469   5.75554   5.81754   5.82788
   5.87669   5.90809   5.92017   5.99445   6.15433   6.18626   6.27287   6.67273
   6.72699   6.74731


              NET ATOMIC CHARGES AND DIPOLE CONTRIBUTIONS

  ATOM NO.   TYPE          CHARGE      No. of ELECS.   s-Pop       p-Pop       d-Pop       
    1          N          -0.630401        5.6304     1.77064     3.85976
    2          N          -0.433006        5.4330     1.52358     3.90943
    3          N          -0.473966        5.4740     1.50998     3.96398
    4          N          -0.931383        5.9314     1.66751     4.26387
    5          N          -0.919555        5.9196     1.66874     4.25082
    6          C          -0.641127        4.6411     1.05343     3.58770
    7          C           0.515248        3.4848     1.05365     2.43111
    8          C           0.382091        3.6179     1.10844     2.50947
    9          C           0.246703        3.7533     1.06515     2.68815
   10          C           0.559468        3.4405     1.08119     2.35935
   11          C          -0.080985        4.0810     1.08548     2.99550
   12          C          -0.267317        4.2673     1.08181     3.18551
   13          C          -0.006318        4.0063     1.09096     2.91536
   14          C          -0.451903        4.4519     1.10034     3.35156
   15          C           0.004013        3.9960     1.09444     2.90154
   16          C          -0.260858        4.2609     1.08329     3.17757
   17          C          -0.157046        4.1570     1.08472     3.07233
   18          C          -0.052903        4.0529     1.09217     2.96073
   19          C          -0.380983        4.3810     1.10657     3.27441
   20          C          -0.054807        4.0548     1.09154     2.96326
   21          C          -0.161017        4.1610     1.08483     3.07619
   22          O          -0.642253        6.6423     1.88068     4.76157
   23          O          -1.022690        7.0227     1.89369     5.12900
   24          O          -1.016682        7.0167     1.89355     5.12313
   25          O          -1.019334        7.0193     1.89264     5.12669
   26          O          -1.020205        7.0202     1.89273     5.12747
   27          S           0.141409        5.8586     1.89312     3.83327     0.13220
   28          S           2.469310        3.5307     1.15990     1.91159     0.45920
   29          S           2.450269        3.5497     1.16538     1.91916     0.46519
   30          H           0.376097        0.6239     0.62390
   31          H           0.352768        0.6472     0.64723
   32          H           0.355380        0.6446     0.64462
   33          H           0.320616        0.6794     0.67938
   34          H           0.321369        0.6786     0.67863
   35          H           0.321362        0.6786     0.67864
   36          H           0.323304        0.6767     0.67670
   37          H           0.185694        0.8143     0.81431
   38          H           0.182818        0.8172     0.81718
   39          H           0.188186        0.8118     0.81181
   40          H           0.203084        0.7969     0.79692
   41          H           0.176949        0.8231     0.82305
   42          H           0.187322        0.8127     0.81268
   43          H           0.184928        0.8151     0.81507
   44          H           0.176349        0.8237     0.82365
 DIPOLE           X         Y         Z       TOTAL
 POINT-CHG.     1.065     4.020     1.057     4.291
 HYBRID        -0.389    -0.076     0.678     0.785
 SUM            0.676     3.945     1.735     4.362


          ATOMIC ORBITAL ELECTRON POPULATIONS

     Atom    s        px        py        pz      x^2-y^2     xz        z^2       yz        xy
    1  N   1.77064   1.31326   1.41475   1.13175
    2  N   1.52358   1.11519   1.58689   1.20735
    3  N   1.50998   1.25255   1.54828   1.16316
    4  N   1.66751   1.67057   1.28194   1.31135
    5  N   1.66874   1.41737   1.27547   1.55798
    6  C   1.05343   1.03663   1.50452   1.04655
    7  C   1.05365   0.84459   0.77536   0.81115
    8  C   1.10844   0.87449   0.81067   0.82431
    9  C   1.06515   0.78299   0.92001   0.98514
   10  C   1.08119   0.88768   0.67154   0.80013
   11  C   1.08548   1.00446   1.00486   0.98619
   12  C   1.08181   1.02426   1.09434   1.06691
   13  C   1.09096   0.99222   0.89956   1.02357
   14  C   1.10034   1.10419   1.19479   1.05259
   15  C   1.09444   0.98965   0.87900   1.03289
   16  C   1.08329   1.01947   1.09267   1.06543
   17  C   1.08472   0.98302   1.08487   1.00444
   18  C   1.09217   1.01282   1.00512   0.94279
   19  C   1.10657   1.09962   1.03731   1.13748
   20  C   1.09154   0.95528   1.07874   0.92924
   21  C   1.08483   1.04177   1.01638   1.01804
   22  O   1.88068   1.90115   1.54165   1.31876
   23  O   1.89369   1.78196   1.78966   1.55738
   24  O   1.89355   1.81889   1.82230   1.48194
   25  O   1.89264   1.79644   1.59022   1.74002
   26  O   1.89273   1.84835   1.52012   1.75900
   27  S   1.89312   0.92579   1.80490   1.10258   0.03178   0.00745   0.04625   0.03053   0.01619
   28  S   1.15990   0.69361   0.62252   0.59547   0.10398   0.08788   0.15324   0.08201   0.03209
   29  S   1.16538   0.69020   0.60675   0.62221   0.10930   0.09902   0.05652   0.10707   0.09329
   30  H   0.62390
   31  H   0.64723
   32  H   0.64462
   33  H   0.67938
   34  H   0.67863
   35  H   0.67864
   36  H   0.67670
   37  H   0.81431
   38  H   0.81718
   39  H   0.81181
   40  H   0.79692
   41  H   0.82305
   42  H   0.81268
   43  H   0.81507
   44  H   0.82365

 **********************
 *                    *
 * JOB ENDED NORMALLY *
 *                    *
 **********************



 TOTAL JOB TIME:             7.56 SECONDS

 == MOPAC DONE ==
