 *******************************************************************************
 **                                                                           **
 **                              MOPAC v23.2.2                                **
 **                                                                           **
 *******************************************************************************
 **          Digital Object Identifier (DOI): 10.5281/zenodo.6511958          **
 **    Visit the DOI location for information on how to cite this program.    **
 *******************************************************************************

                              PM7 CALCULATION RESULTS

 *******************************************************************************
 *  CALCULATION DONE: (MAX THREADS = 24)             Wed Mar 18 14:16:23 2026  *
 *  PM7        - The PM7 Hamiltonian to be used
 *
 *
 *
 *                 CHARGE ON SYSTEM = 0
 *
 *
 *
 *  EPS=78.4   - USE ANDREAS KLAMT'S COSMO IMPLICIT SOLVATION MODEL
 *  T=         - A TIME OF 172800.0 SECONDS REQUESTED
 *  DUMP=N     - RESTART FILE WRITTEN EVERY 7200.0 SECONDS REQUESTED
 *******************************************************************************
PM7 CHARGE=0 EPS=78.4


   ATOM   CHEMICAL          X               Y               Z
  NUMBER   SYMBOL      (ANGSTROMS)     (ANGSTROMS)     (ANGSTROMS)

     1       N         -1.03470000  *  -1.26700000  *  -0.76380000  *
     2       N         -1.99550000  *   0.78440000  *   0.01740000  *
     3       N          0.30790000  *  -2.99410000  *  -1.51830000  *
     4       N         -8.35190000  *  -0.61000000  *  -0.61890000  *
     5       N          8.11430000  *   0.84990000  *   1.89330000  *
     6       C          1.24920000  *  -0.83430000  *  -0.97430000  *
     7       C          0.20660000  *  -1.72350000  *  -1.10090000  *
     8       C         -0.97460000  *  -0.01070000  *  -0.38340000  *
     9       C         -3.34170000  *   0.45270000  *   0.25890000  *
    10       C          2.64480000  *  -1.03940000  *  -1.29590000  *
    11       C          3.70610000  *  -0.26450000  *  -0.59970000  *
    12       C         -3.84700000  *  -0.85400000  *   0.22380000  *
    13       C         -5.20390000  *  -1.11610000  *   0.44450000  *
    14       C         -6.07950000  *  -0.05840000  *   0.68570000  *
    15       C         -5.60860000  *   1.25210000  *   0.72930000  *
    16       C         -4.24930000  *   1.49910000  *   0.51080000  *
    17       C          3.70240000  *  -0.11500000  *   0.79460000  *
    18       C          4.72550000  *   0.60130000  *   1.42000000  *
    19       C          5.75850000  *   1.14610000  *   0.64930000  *
    20       C          5.77530000  *   0.99260000  *  -0.74000000  *
    21       C          4.75180000  *   0.27530000  *  -1.36260000  *
    22       O          3.02830000  *  -1.85460000  *  -2.13650000  *
    23       O         -7.90930000  *  -1.66120000  *   1.64630000  *
    24       O         -8.43540000  *   0.80810000  *   1.43140000  *
    25       O          7.73240000  *   2.85460000  *   0.45240000  *
    26       O          6.49920000  *   2.64880000  *   2.65610000  *
    27       S          0.61740000  *   0.66890000  *  -0.44750000  *
    28       S         -7.79690000  *  -0.39860000  *   0.95730000  *
    29       S          7.04450000  *   2.07070000  *   1.45170000  *
    30       H         -1.75760000  *   1.74210000  *   0.24220000  *
    31       H          1.11720000  *  -3.26630000  *  -2.07580000  *
    32       H         -0.54910000  *  -3.45050000  *  -1.81350000  *
    33       H         -7.60150000  *  -0.66080000  *  -1.30710000  *
    34       H         -9.02020000  *   0.13130000  *  -0.83530000  *
    35       H          7.74400000  *  -0.08990000  *   1.75800000  *
    36       H          8.99800000  *   0.98670000  *   1.39900000  *
    37       H         -3.19200000  *  -1.70210000  *   0.04170000  *
    38       H         -5.56100000  *  -2.14420000  *   0.43070000  *
    39       H         -6.28110000  *   2.08290000  *   0.93110000  *
    40       H         -3.90220000  *   2.53000000  *   0.53950000  *
    41       H          2.91690000  *  -0.55820000  *   1.40350000  *
    42       H          4.71290000  *   0.73030000  *   2.50150000  *
    43       H          6.57310000  *   1.42450000  *  -1.34160000  *
    44       H          4.76660000  *   0.14110000  *  -2.44330000  *



          CARTESIAN COORDINATES 

    NO.       ATOM           X           Y           Z

     1         N         -1.0347     -1.2670     -0.7638
     2         N         -1.9955      0.7844      0.0174
     3         N          0.3079     -2.9941     -1.5183
     4         N         -8.3519     -0.6100     -0.6189
     5         N          8.1143      0.8499      1.8933
     6         C          1.2492     -0.8343     -0.9743
     7         C          0.2066     -1.7235     -1.1009
     8         C         -0.9746     -0.0107     -0.3834
     9         C         -3.3417      0.4527      0.2589
    10         C          2.6448     -1.0394     -1.2959
    11         C          3.7061     -0.2645     -0.5997
    12         C         -3.8470     -0.8540      0.2238
    13         C         -5.2039     -1.1161      0.4445
    14         C         -6.0795     -0.0584      0.6857
    15         C         -5.6086      1.2521      0.7293
    16         C         -4.2493      1.4991      0.5108
    17         C          3.7024     -0.1150      0.7946
    18         C          4.7255      0.6013      1.4200
    19         C          5.7585      1.1461      0.6493
    20         C          5.7753      0.9926     -0.7400
    21         C          4.7518      0.2753     -1.3626
    22         O          3.0283     -1.8546     -2.1365
    23         O         -7.9093     -1.6612      1.6463
    24         O         -8.4354      0.8081      1.4314
    25         O          7.7324      2.8546      0.4524
    26         O          6.4992      2.6488      2.6561
    27         S          0.6174      0.6689     -0.4475
    28         S         -7.7969     -0.3986      0.9573
    29         S          7.0445      2.0707      1.4517
    30         H         -1.7576      1.7421      0.2422
    31         H          1.1172     -3.2663     -2.0758
    32         H         -0.5491     -3.4505     -1.8135
    33         H         -7.6015     -0.6608     -1.3071
    34         H         -9.0202      0.1313     -0.8353
    35         H          7.7440     -0.0899      1.7580
    36         H          8.9980      0.9867      1.3990
    37         H         -3.1920     -1.7021      0.0417
    38         H         -5.5610     -2.1442      0.4307
    39         H         -6.2811      2.0829      0.9311
    40         H         -3.9022      2.5300      0.5395
    41         H          2.9169     -0.5582      1.4035
    42         H          4.7129      0.7303      2.5015
    43         H          6.5731      1.4245     -1.3416
    44         H          4.7666      0.1411     -2.4433

 General Reference for PM7:
 "Optimization of Parameters for Semiempirical Methods VI: More Modifications to the 
 NDDO Approximations and Re-optimization of Parameters", J. J. P. Stewart, J. Mol. Mod., 1:32, 19 (2013)
 https://link.springer.com/article/10.1007/s00894-012-1667-x

           Empirical Formula: C16 H15 N5 O5 S3  =    44 atoms



      MOLECULAR POINT GROUP   :   C1  


      RHF CALCULATION, NO. OF DOUBLY OCCUPIED LEVELS = 76


          Geometry optimization using L-BFGS
 CYCLE:     1 TIME:   0.215 TIME LEFT:  2.00D  GRAD.:   164.230 HEAT: -138.1516
 CYCLE:     2 TIME:   0.035 TIME LEFT:  2.00D  GRAD.:   161.638 HEAT: -138.5778
 CYCLE:     3 TIME:   0.047 TIME LEFT:  2.00D  GRAD.:    59.686 HEAT: -148.7145
 CYCLE:     4 TIME:   0.043 TIME LEFT:  2.00D  GRAD.:   161.754 HEAT: -138.5780
 CYCLE:     5 TIME:   0.043 TIME LEFT:  2.00D  GRAD.:    59.766 HEAT: -148.7129
 CYCLE:     6 TIME:   0.039 TIME LEFT:  2.00D  GRAD.:    44.261 HEAT: -150.1352
 CYCLE:     7 TIME:   0.035 TIME LEFT:  2.00D  GRAD.:    37.475 HEAT: -151.0665
 CYCLE:     8 TIME:   0.039 TIME LEFT:  2.00D  GRAD.:    49.125 HEAT: -152.2028
 CYCLE:     9 TIME:   0.039 TIME LEFT:  2.00D  GRAD.:    45.347 HEAT: -153.3549
 CYCLE:    10 TIME:   0.035 TIME LEFT:  2.00D  GRAD.:    21.303 HEAT: -153.8040
 CYCLE:    11 TIME:   0.035 TIME LEFT:  2.00D  GRAD.:    16.242 HEAT: -154.0001
 CYCLE:    12 TIME:   0.039 TIME LEFT:  2.00D  GRAD.:    16.785 HEAT: -154.3983
 CYCLE:    13 TIME:   0.039 TIME LEFT:  2.00D  GRAD.:    29.145 HEAT: -154.7943
 CYCLE:    14 TIME:   0.035 TIME LEFT:  2.00D  GRAD.:    15.933 HEAT: -155.0759
 CYCLE:    15 TIME:   0.035 TIME LEFT:  2.00D  GRAD.:    12.182 HEAT: -155.2609
 CYCLE:    16 TIME:   0.039 TIME LEFT:  2.00D  GRAD.:    13.967 HEAT: -155.4670
 CYCLE:    17 TIME:   0.035 TIME LEFT:  2.00D  GRAD.:    21.456 HEAT: -155.4743
 CYCLE:    18 TIME:   0.035 TIME LEFT:  2.00D  GRAD.:    11.360 HEAT: -155.7108
 CYCLE:    19 TIME:   0.039 TIME LEFT:  2.00D  GRAD.:     7.468 HEAT: -155.8767
 CYCLE:    20 TIME:   0.035 TIME LEFT:  2.00D  GRAD.:     8.056 HEAT: -155.9142
 CYCLE:    21 TIME:   0.039 TIME LEFT:  2.00D  GRAD.:    20.303 HEAT: -155.9577
 CYCLE:    22 TIME:   0.039 TIME LEFT:  2.00D  GRAD.:    10.027 HEAT: -156.0745
 CYCLE:    23 TIME:   0.035 TIME LEFT:  2.00D  GRAD.:     7.940 HEAT: -156.1964
 CYCLE:    24 TIME:   0.039 TIME LEFT:  2.00D  GRAD.:    14.157 HEAT: -156.2428
 CYCLE:    25 TIME:   0.039 TIME LEFT:  2.00D  GRAD.:     8.501 HEAT: -156.1823
 CYCLE:    26 TIME:   0.035 TIME LEFT:  2.00D  GRAD.:     7.725 HEAT: -156.2048
 CYCLE:    27 TIME:   0.039 TIME LEFT:  2.00D  GRAD.:    16.638 HEAT: -156.3391
 CYCLE:    28 TIME:   0.039 TIME LEFT:  2.00D  GRAD.:     6.076 HEAT: -156.4586
 CYCLE:    29 TIME:   0.035 TIME LEFT:  2.00D  GRAD.:     5.487 HEAT: -156.4008
 CYCLE:    30 TIME:   0.035 TIME LEFT:  2.00D  GRAD.:     6.192 HEAT: -156.5188
 CYCLE:    31 TIME:   0.043 TIME LEFT:  2.00D  GRAD.:    13.115 HEAT: -156.4759
 CYCLE:    32 TIME:   0.043 TIME LEFT:  2.00D  GRAD.:     5.261 HEAT: -156.5214
 CYCLE:    33 TIME:   0.062 TIME LEFT:  2.00D  GRAD.:     4.730 HEAT: -156.5305
 CYCLE:    34 TIME:   0.043 TIME LEFT:  2.00D  GRAD.:     6.021 HEAT: -156.5654
 CYCLE:    35 TIME:   0.039 TIME LEFT:  2.00D  GRAD.:    11.328 HEAT: -156.6509
 CYCLE:    36 TIME:   0.039 TIME LEFT:  2.00D  GRAD.:     6.554 HEAT: -156.7322
 CYCLE:    37 TIME:   0.035 TIME LEFT:  2.00D  GRAD.:     5.042 HEAT: -156.7961
 CYCLE:    38 TIME:   0.039 TIME LEFT:  2.00D  GRAD.:     7.070 HEAT: -156.7316
 CYCLE:    39 TIME:   0.035 TIME LEFT:  2.00D  GRAD.:     8.734 HEAT: -156.8782
 CYCLE:    40 TIME:   0.043 TIME LEFT:  2.00D  GRAD.:     8.640 HEAT: -156.9579
 CYCLE:    41 TIME:   0.035 TIME LEFT:  2.00D  GRAD.:    25.283 HEAT: -156.9151
 CYCLE:    42 TIME:   0.039 TIME LEFT:  2.00D  GRAD.:    11.486 HEAT: -156.9603
 CYCLE:    43 TIME:   0.035 TIME LEFT:  2.00D  GRAD.:     3.635 HEAT: -157.0680
 CYCLE:    44 TIME:   0.039 TIME LEFT:  2.00D  GRAD.:     3.968 HEAT: -157.0191
 CYCLE:    45 TIME:   0.035 TIME LEFT:  2.00D  GRAD.:     5.243 HEAT: -157.0378
 CYCLE:    46 TIME:   0.035 TIME LEFT:  2.00D  GRAD.:     8.043 HEAT: -157.1145
 CYCLE:    47 TIME:   0.039 TIME LEFT:  2.00D  GRAD.:     6.265 HEAT: -157.0421
 CYCLE:    48 TIME:   0.035 TIME LEFT:  2.00D  GRAD.:     5.180 HEAT: -157.0566
 CYCLE:    49 TIME:   0.035 TIME LEFT:  2.00D  GRAD.:     6.949 HEAT: -157.0322
 CYCLE:    50 TIME:   0.035 TIME LEFT:  2.00D  GRAD.:     9.664 HEAT: -157.2263
 CYCLE:    51 TIME:   0.039 TIME LEFT:  2.00D  GRAD.:     8.827 HEAT: -157.2413
 CYCLE:    52 TIME:   0.035 TIME LEFT:  2.00D  GRAD.:     5.645 HEAT: -157.3067
 CYCLE:    53 TIME:   0.035 TIME LEFT:  2.00D  GRAD.:     5.731 HEAT: -157.3399
 CYCLE:    54 TIME:   0.039 TIME LEFT:  2.00D  GRAD.:     5.825 HEAT: -157.3126
 CYCLE:    55 TIME:   0.039 TIME LEFT:  2.00D  GRAD.:     7.627 HEAT: -157.3706
 CYCLE:    56 TIME:   0.035 TIME LEFT:  2.00D  GRAD.:     7.044 HEAT: -157.3815
 CYCLE:    57 TIME:   0.035 TIME LEFT:  2.00D  GRAD.:     5.948 HEAT: -157.3593
 CYCLE:    58 TIME:   0.035 TIME LEFT:  2.00D  GRAD.:     6.000 HEAT: -157.4616
 CYCLE:    59 TIME:   0.035 TIME LEFT:  2.00D  GRAD.:     9.861 HEAT: -157.5759
 CYCLE:    60 TIME:   0.035 TIME LEFT:  2.00D  GRAD.:     5.823 HEAT: -157.5365
 CYCLE:    61 TIME:   0.039 TIME LEFT:  2.00D  GRAD.:     5.902 HEAT: -157.4088
 CYCLE:    62 TIME:   0.035 TIME LEFT:  2.00D  GRAD.:     8.498 HEAT: -157.4306
 CYCLE:    63 TIME:   0.039 TIME LEFT:  2.00D  GRAD.:     7.361 HEAT: -157.4684
 CYCLE:    64 TIME:   0.035 TIME LEFT:  2.00D  GRAD.:     5.752 HEAT: -157.5607
 CYCLE:    65 TIME:   0.051 TIME LEFT:  2.00D  GRAD.:     8.272 HEAT: -157.5408
 CYCLE:    66 TIME:   0.047 TIME LEFT:  2.00D  GRAD.:     6.395 HEAT: -157.6143
 CYCLE:    67 TIME:   0.043 TIME LEFT:  2.00D  GRAD.:     5.567 HEAT: -157.6367
 CYCLE:    68 TIME:   0.074 TIME LEFT:  2.00D  GRAD.:     7.494 HEAT: -157.7839
 CYCLE:    69 TIME:   0.047 TIME LEFT:  2.00D  GRAD.:     6.948 HEAT: -157.6805
 CYCLE:    70 TIME:   0.039 TIME LEFT:  2.00D  GRAD.:     5.483 HEAT: -157.6925
 CYCLE:    71 TIME:   0.051 TIME LEFT:  2.00D  GRAD.:     6.083 HEAT: -157.7651
 CYCLE:    72 TIME:   0.062 TIME LEFT:  2.00D  GRAD.:     7.493 HEAT: -157.7745
 CYCLE:    73 TIME:   0.047 TIME LEFT:  2.00D  GRAD.:     8.733 HEAT: -157.8174
 CYCLE:    74 TIME:   0.035 TIME LEFT:  2.00D  GRAD.:     5.833 HEAT: -158.0279
 CYCLE:    75 TIME:   0.035 TIME LEFT:  2.00D  GRAD.:     8.460 HEAT: -158.1480
 CYCLE:    76 TIME:   0.039 TIME LEFT:  2.00D  GRAD.:    12.755 HEAT: -158.1856
 CYCLE:    77 TIME:   0.039 TIME LEFT:  2.00D  GRAD.:    12.151 HEAT: -158.2813
 CYCLE:    78 TIME:   0.035 TIME LEFT:  2.00D  GRAD.:     9.358 HEAT: -158.3035
 CYCLE:    79 TIME:   0.043 TIME LEFT:  2.00D  GRAD.:    12.621 HEAT: -158.2517
 CYCLE:    80 TIME:   0.035 TIME LEFT:  2.00D  GRAD.:    21.695 HEAT: -158.2969
 CYCLE:    81 TIME:   0.035 TIME LEFT:  2.00D  GRAD.:     6.740 HEAT: -158.4297
 CYCLE:    82 TIME:   0.043 TIME LEFT:  2.00D  GRAD.:     6.955 HEAT: -158.3365
 CYCLE:    83 TIME:   0.035 TIME LEFT:  2.00D  GRAD.:     8.893 HEAT: -158.4463
 CYCLE:    84 TIME:   0.039 TIME LEFT:  2.00D  GRAD.:    12.857 HEAT: -158.5847
 CYCLE:    85 TIME:   0.035 TIME LEFT:  2.00D  GRAD.:    13.577 HEAT: -158.5304
 CYCLE:    86 TIME:   0.051 TIME LEFT:  2.00D  GRAD.:     9.949 HEAT: -158.5031
 CYCLE:    87 TIME:   0.039 TIME LEFT:  2.00D  GRAD.:    14.678 HEAT: -158.5449
 CYCLE:    88 TIME:   0.035 TIME LEFT:  2.00D  GRAD.:    10.469 HEAT: -158.6250
 CYCLE:    89 TIME:   0.039 TIME LEFT:  2.00D  GRAD.:     9.478 HEAT: -158.7704
 CYCLE:    90 TIME:   0.039 TIME LEFT:  2.00D  GRAD.:    16.616 HEAT: -158.7799
 CYCLE:    91 TIME:   0.035 TIME LEFT:  2.00D  GRAD.:    19.810 HEAT: -158.8614
 CYCLE:    92 TIME:   0.039 TIME LEFT:  2.00D  GRAD.:    10.902 HEAT: -158.9951
 CYCLE:    93 TIME:   0.039 TIME LEFT:  2.00D  GRAD.:    13.060 HEAT: -158.8776
 CYCLE:    94 TIME:   0.035 TIME LEFT:  2.00D  GRAD.:    15.197 HEAT: -158.9482
 CYCLE:    95 TIME:   0.039 TIME LEFT:  2.00D  GRAD.:    13.122 HEAT: -158.9754
 CYCLE:    96 TIME:   0.035 TIME LEFT:  2.00D  GRAD.:    20.500 HEAT: -159.3538
 CYCLE:    97 TIME:   0.039 TIME LEFT:  2.00D  GRAD.:     9.978 HEAT: -159.5361
 CYCLE:    98 TIME:   0.039 TIME LEFT:  2.00D  GRAD.:    10.523 HEAT: -159.6874
 CYCLE:    99 TIME:   0.035 TIME LEFT:  2.00D  GRAD.:    15.996 HEAT: -159.5842
 CYCLE:   100 TIME:   0.035 TIME LEFT:  2.00D  GRAD.:    12.548 HEAT: -159.7929
 CYCLE:   101 TIME:   0.035 TIME LEFT:  2.00D  GRAD.:     8.875 HEAT: -159.8915
 CYCLE:   102 TIME:   0.035 TIME LEFT:  2.00D  GRAD.:    10.723 HEAT: -159.9323
 CYCLE:   103 TIME:   0.039 TIME LEFT:  2.00D  GRAD.:    15.109 HEAT: -160.1355
 CYCLE:   104 TIME:   0.039 TIME LEFT:  2.00D  GRAD.:    23.719 HEAT: -160.2940
 CYCLE:   105 TIME:   0.035 TIME LEFT:  2.00D  GRAD.:     8.584 HEAT: -160.4110
 CYCLE:   106 TIME:   0.035 TIME LEFT:  2.00D  GRAD.:    16.747 HEAT: -160.5067
 CYCLE:   107 TIME:   0.035 TIME LEFT:  2.00D  GRAD.:     7.881 HEAT: -160.5382
 CYCLE:   108 TIME:   0.035 TIME LEFT:  2.00D  GRAD.:     7.560 HEAT: -160.5845
 CYCLE:   109 TIME:   0.043 TIME LEFT:  2.00D  GRAD.:     6.872 HEAT: -160.5219
 CYCLE:   110 TIME:   0.039 TIME LEFT:  2.00D  GRAD.:    17.454 HEAT: -160.6022
 CYCLE:   111 TIME:   0.035 TIME LEFT:  2.00D  GRAD.:     9.497 HEAT: -160.6562
 CYCLE:   112 TIME:   0.035 TIME LEFT:  2.00D  GRAD.:     5.898 HEAT: -160.7002
 CYCLE:   113 TIME:   0.039 TIME LEFT:  2.00D  GRAD.:     7.305 HEAT: -160.7985
 CYCLE:   114 TIME:   0.035 TIME LEFT:  2.00D  GRAD.:    13.163 HEAT: -160.9187
 CYCLE:   115 TIME:   0.035 TIME LEFT:  2.00D  GRAD.:     6.165 HEAT: -161.0625
 CYCLE:   116 TIME:   0.035 TIME LEFT:  2.00D  GRAD.:     5.121 HEAT: -161.1060
 CYCLE:   117 TIME:   0.039 TIME LEFT:  2.00D  GRAD.:     7.120 HEAT: -161.1517
 CYCLE:   118 TIME:   0.035 TIME LEFT:  2.00D  GRAD.:     9.512 HEAT: -161.1523
 CYCLE:   119 TIME:   0.035 TIME LEFT:  2.00D  GRAD.:     5.314 HEAT: -161.1919
 CYCLE:   120 TIME:   0.035 TIME LEFT:  2.00D  GRAD.:     5.558 HEAT: -161.2025
 CYCLE:   121 TIME:   0.035 TIME LEFT:  2.00D  GRAD.:     5.687 HEAT: -161.2927
 CYCLE:   122 TIME:   0.035 TIME LEFT:  2.00D  GRAD.:     6.834 HEAT: -161.4959
 CYCLE:   123 TIME:   0.035 TIME LEFT:  2.00D  GRAD.:     8.323 HEAT: -161.5890
 CYCLE:   124 TIME:   0.039 TIME LEFT:  2.00D  GRAD.:     9.141 HEAT: -161.6967
 CYCLE:   125 TIME:   0.035 TIME LEFT:  2.00D  GRAD.:     5.490 HEAT: -161.6058
 CYCLE:   126 TIME:   0.035 TIME LEFT:  2.00D  GRAD.:     8.783 HEAT: -161.7047
 CYCLE:   127 TIME:   0.035 TIME LEFT:  2.00D  GRAD.:     5.655 HEAT: -161.6711
 CYCLE:   128 TIME:   0.039 TIME LEFT:  2.00D  GRAD.:     6.626 HEAT: -161.6663
 CYCLE:   129 TIME:   0.035 TIME LEFT:  2.00D  GRAD.:     5.717 HEAT: -161.7371
 CYCLE:   130 TIME:   0.035 TIME LEFT:  2.00D  GRAD.:     5.952 HEAT: -161.5733
 CYCLE:   131 TIME:   0.035 TIME LEFT:  2.00D  GRAD.:     7.998 HEAT: -161.6383
 CYCLE:   132 TIME:   0.035 TIME LEFT:  2.00D  GRAD.:     4.851 HEAT: -161.6076
 CYCLE:   133 TIME:   0.039 TIME LEFT:  2.00D  GRAD.:     6.057 HEAT: -161.6489
 CYCLE:   134 TIME:   0.035 TIME LEFT:  2.00D  GRAD.:     6.520 HEAT: -161.6682
 CYCLE:   135 TIME:   0.035 TIME LEFT:  2.00D  GRAD.:     5.010 HEAT: -161.7299
 CYCLE:   136 TIME:   0.035 TIME LEFT:  2.00D  GRAD.:     4.237 HEAT: -161.6445
 CYCLE:   137 TIME:   0.035 TIME LEFT:  2.00D  GRAD.:     4.616 HEAT: -161.7516
 CYCLE:   138 TIME:   0.035 TIME LEFT:  2.00D  GRAD.:     4.766 HEAT: -161.8258
 CYCLE:   139 TIME:   0.035 TIME LEFT:  2.00D  GRAD.:     3.411 HEAT: -161.6489
 CYCLE:   140 TIME:   0.035 TIME LEFT:  2.00D  GRAD.:     3.284 HEAT: -161.6400
 CYCLE:   141 TIME:   0.035 TIME LEFT:  2.00D  GRAD.:     4.072 HEAT: -161.6654
 CYCLE:   142 TIME:   0.035 TIME LEFT:  2.00D  GRAD.:     4.306 HEAT: -161.6492
 CYCLE:   143 TIME:   0.035 TIME LEFT:  2.00D  GRAD.:     2.715 HEAT: -161.6588
 CYCLE:   144 TIME:   0.035 TIME LEFT:  2.00D  GRAD.:     2.991 HEAT: -161.6697
 CYCLE:   145 TIME:   0.035 TIME LEFT:  2.00D  GRAD.:     3.324 HEAT: -161.6717
 CYCLE:   146 TIME:   0.035 TIME LEFT:  2.00D  GRAD.:     6.382 HEAT: -161.8511
 CYCLE:   147 TIME:   0.035 TIME LEFT:  2.00D  GRAD.:     2.263 HEAT: -161.8023
 CYCLE:   148 TIME:   0.035 TIME LEFT:  2.00D  GRAD.:     1.802 HEAT: -161.7973
 CYCLE:   149 TIME:   0.035 TIME LEFT:  2.00D  GRAD.:     1.969 HEAT: -161.8045
 CYCLE:   150 TIME:   0.035 TIME LEFT:  2.00D  GRAD.:     3.674 HEAT: -161.5983
 CYCLE:   151 TIME:   0.035 TIME LEFT:  2.00D  GRAD.:     1.967 HEAT: -161.6054
 CYCLE:   152 TIME:   0.035 TIME LEFT:  2.00D  GRAD.:     1.634 HEAT: -161.5985
 CYCLE:   153 TIME:   0.035 TIME LEFT:  2.00D  GRAD.:     2.016 HEAT: -161.6017
 CYCLE:   154 TIME:   0.039 TIME LEFT:  2.00D  GRAD.:     3.342 HEAT: -161.4752
 CYCLE:   155 TIME:   0.035 TIME LEFT:  2.00D  GRAD.:     2.130 HEAT: -161.4745
 CYCLE:   156 TIME:   0.039 TIME LEFT:  2.00D  GRAD.:     1.910 HEAT: -161.5914
 CYCLE:   157 TIME:   0.031 TIME LEFT:  2.00D  GRAD.:     2.253 HEAT: -161.7256
 CYCLE:   158 TIME:   0.035 TIME LEFT:  2.00D  GRAD.:     1.946 HEAT: -161.6350
 CYCLE:   159 TIME:   0.039 TIME LEFT:  2.00D  GRAD.:     2.628 HEAT: -161.6074
 CYCLE:   160 TIME:   0.035 TIME LEFT:  2.00D  GRAD.:     1.999 HEAT: -161.7236
 CYCLE:   161 TIME:   0.035 TIME LEFT:  2.00D  GRAD.:     1.751 HEAT: -161.7246
 CYCLE:   162 TIME:   0.039 TIME LEFT:  2.00D  GRAD.:     2.067 HEAT: -161.7779
 CYCLE:   163 TIME:   0.035 TIME LEFT:  2.00D  GRAD.:     3.431 HEAT: -161.7679
 CYCLE:   164 TIME:   0.035 TIME LEFT:  2.00D  GRAD.:     2.536 HEAT: -161.7769
 CYCLE:   165 TIME:   0.035 TIME LEFT:  2.00D  GRAD.:     2.843 HEAT: -161.6446
 CYCLE:   166 TIME:   0.035 TIME LEFT:  2.00D  GRAD.:     2.059 HEAT: -161.6105
 CYCLE:   167 TIME:   0.039 TIME LEFT:  2.00D  GRAD.:     2.159 HEAT: -161.6293
 CYCLE:   168 TIME:   0.035 TIME LEFT:  2.00D  GRAD.:     2.850 HEAT: -161.5872
 CYCLE:   169 TIME:   0.039 TIME LEFT:  2.00D  GRAD.:     2.578 HEAT: -161.5855
 CYCLE:   170 TIME:   0.035 TIME LEFT:  2.00D  GRAD.:     2.166 HEAT: -161.6041
 CYCLE:   171 TIME:   0.035 TIME LEFT:  2.00D  GRAD.:     2.321 HEAT: -161.8102
 CYCLE:   172 TIME:   0.035 TIME LEFT:  2.00D  GRAD.:     2.970 HEAT: -161.7840
 CYCLE:   173 TIME:   0.035 TIME LEFT:  2.00D  GRAD.:     2.297 HEAT: -161.7950
 CYCLE:   174 TIME:   0.035 TIME LEFT:  2.00D  GRAD.:     2.118 HEAT: -161.7917
 CYCLE:   175 TIME:   0.039 TIME LEFT:  2.00D  GRAD.:     2.770 HEAT: -161.7817
 CYCLE:   176 TIME:   0.035 TIME LEFT:  2.00D  GRAD.:     2.694 HEAT: -161.7389


           HEAT OF FORMATION IS ESSENTIALLY STATIONARY


          CURRENT BEST VALUE OF HEAT OF FORMATION =   -161.852409

 PM7 CHARGE=0 EPS=78.4


  N    -1.11694358 +1  -1.11079941 +1  -0.76528243 +1
  N    -1.95117045 +1   0.86039772 +1   0.31130665 +1
  N     0.13212983 +1  -2.85099542 +1  -1.74431728 +1
  N    -8.23531078 +1  -0.70753040 +1  -0.92622705 +1
  N     8.12724693 +1   0.89702726 +1   1.91942534 +1
  C     1.26594358 +1  -0.89329193 +1  -0.79343516 +1
  C     0.12267938 +1  -1.66552792 +1  -1.12671889 +1
  C    -0.96470456 +1   0.07743580 +1  -0.17166364 +1
  C    -3.32889531 +1   0.52599267 +1   0.36257142 +1
  C     2.60164179 +1  -1.30201759 +1  -1.00055214 +1
  C     3.70918174 +1  -0.44740845 +1  -0.48742201 +1
  C    -3.80887721 +1  -0.78704975 +1   0.31541180 +1
  C    -5.17830040 +1  -1.02050274 +1   0.41716167 +1
  C    -6.07000973 +1   0.04338199 +1   0.55991893 +1
  C    -5.58478814 +1   1.35329890 +1   0.61686184 +1
  C    -4.22332384 +1   1.60034905 +1   0.52163766 +1
  C     3.92403632 +1  -0.36751777 +1   0.88750706 +1
  C     4.97674597 +1   0.40353602 +1   1.37186864 +1
  C     5.80962699 +1   1.08217992 +1   0.47875596 +1
  C     5.58660234 +1   1.00192692 +1  -0.89452537 +1
  C     4.53115636 +1   0.23263572 +1  -1.38253707 +1
  O     2.88751856 +1  -2.35124222 +1  -1.57631590 +1
  O    -8.03373730 +1  -1.42280246 +1   1.50962206 +1
  O    -8.45940479 +1   0.99486106 +1   0.99776946 +1
  O     7.88764829 +1   2.60999701 +1   0.00619993 +1
  O     6.60258541 +1   2.93732885 +1   2.13481177 +1
  S     0.77530794 +1   0.60895266 +1  -0.05995911 +1
  S    -7.77609528 +1  -0.25417260 +1   0.66939173 +1
  S     7.12496943 +1   2.03633253 +1   1.10967094 +1
  H    -1.71118719 +1   1.81057618 +1   0.65237756 +1
  H     1.01864320 +1  -3.27452734 +1  -2.00371246 +1
  H    -0.71539649 +1  -3.36138462 +1  -1.94929984 +1
  H    -8.57752273 +1   0.04528034 +1  -1.51960038 +1
  H    -8.88730922 +1  -1.48572724 +1  -0.99030288 +1
  H     9.02487645 +1   0.70641280 +1   1.47858200 +1
  H     8.29393513 +1   1.08825428 +1   2.90586966 +1
  H    -3.12807797 +1  -1.63470373 +1   0.20786709 +1
  H    -5.53157677 +1  -2.06064127 +1   0.39014330 +1
  H    -6.26719194 +1   2.20739409 +1   0.74006590 +1
  H    -3.85254323 +1   2.62712546 +1   0.56632159 +1
  H     3.28180064 +1  -0.91020065 +1   1.58383090 +1
  H     5.13045729 +1   0.46308628 +1   2.45565709 +1
  H     6.23099319 +1   1.53171834 +1  -1.60901402 +1
  H     4.35641416 +1   0.16286449 +1  -2.45805590 +1



 -------------------------------------------------------------------------------
 PM7 CHARGE=0 EPS=78.4




     HERBERTS TEST WAS SATISFIED IN BFGS                      
     SCF FIELD WAS ACHIEVED                                   


                              PM7 CALCULATION
                                                       MOPAC v23.2.2 Linux
                                                       Wed Mar 18 14:16:29 2026




          FINAL HEAT OF FORMATION =       -161.85241 KCAL/MOL =    -677.19048 KJ/MOL
          VAN DER WAALS AREA      =        413.96 SQUARE ANGSTROMS



          DIELECTRIC ENERGY       =         -2.64901 EV
          COSMO AREA              =        413.96 SQUARE ANGSTROMS
          COSMO VOLUME            =        462.83 CUBIC ANGSTROMS

          GRADIENT NORM           =          6.38185          =       0.96210 PER ATOM
          IONIZATION POTENTIAL    =          8.826380 EV
          HOMO LUMO ENERGIES (EV) =         -8.826 -1.284
          NO. OF FILLED LEVELS    =         76
          MOLECULAR WEIGHT        =        453.5050         POINT GROUP:  C1  

          MOLECULAR DIMENSIONS (Angstroms)

            Atom       Atom       Distance
            H    35    H    34    18.21393
            H    39    H    31     7.28314
            H    43    O    23     4.98779


          SCF CALCULATIONS        =        179

          WALL-CLOCK TIME         =      6.895 SECONDS
          COMPUTATION TIME        =          2 MINUTES AND 44.073 SECONDS



       FINAL  POINT  AND  DERIVATIVES

   PARAMETER     ATOM    TYPE            VALUE        GRADIENT
      1          1  N    CARTESIAN X    -1.116944     -0.083002  KCAL/ANGSTROM
      2          1  N    CARTESIAN Y    -1.110799     -0.252307  KCAL/ANGSTROM
      3          1  N    CARTESIAN Z    -0.765282     -0.190489  KCAL/ANGSTROM
      4          2  N    CARTESIAN X    -1.951170      0.705091  KCAL/ANGSTROM
      5          2  N    CARTESIAN Y     0.860398     -0.219969  KCAL/ANGSTROM
      6          2  N    CARTESIAN Z     0.311307     -0.531734  KCAL/ANGSTROM
      7          3  N    CARTESIAN X     0.132130     -0.137891  KCAL/ANGSTROM
      8          3  N    CARTESIAN Y    -2.850995     -1.197119  KCAL/ANGSTROM
      9          3  N    CARTESIAN Z    -1.744317     -0.478260  KCAL/ANGSTROM
     10          4  N    CARTESIAN X    -8.235311     -0.330618  KCAL/ANGSTROM
     11          4  N    CARTESIAN Y    -0.707530     -0.124288  KCAL/ANGSTROM
     12          4  N    CARTESIAN Z    -0.926227     -0.105080  KCAL/ANGSTROM
     13          5  N    CARTESIAN X     8.127247      0.106197  KCAL/ANGSTROM
     14          5  N    CARTESIAN Y     0.897027     -0.148838  KCAL/ANGSTROM
     15          5  N    CARTESIAN Z     1.919425     -0.113029  KCAL/ANGSTROM
     16          6  C    CARTESIAN X     1.265944     -0.751534  KCAL/ANGSTROM
     17          6  C    CARTESIAN Y    -0.893292     -0.392039  KCAL/ANGSTROM
     18          6  C    CARTESIAN Z    -0.793435     -0.119478  KCAL/ANGSTROM
     19          7  C    CARTESIAN X     0.122679      0.921746  KCAL/ANGSTROM
     20          7  C    CARTESIAN Y    -1.665528      1.633009  KCAL/ANGSTROM
     21          7  C    CARTESIAN Z    -1.126719      0.994032  KCAL/ANGSTROM
     22          8  C    CARTESIAN X    -0.964705      0.210174  KCAL/ANGSTROM
     23          8  C    CARTESIAN Y     0.077436      0.263639  KCAL/ANGSTROM
     24          8  C    CARTESIAN Z    -0.171664      0.534279  KCAL/ANGSTROM
     25          9  C    CARTESIAN X    -3.328895     -0.387331  KCAL/ANGSTROM
     26          9  C    CARTESIAN Y     0.525993      0.762793  KCAL/ANGSTROM
     27          9  C    CARTESIAN Z     0.362571      0.066345  KCAL/ANGSTROM
     28         10  C    CARTESIAN X     2.601642      0.236414  KCAL/ANGSTROM
     29         10  C    CARTESIAN Y    -1.302018      2.467749  KCAL/ANGSTROM
     30         10  C    CARTESIAN Z    -1.000552      1.077644  KCAL/ANGSTROM
     31         11  C    CARTESIAN X     3.709182     -0.316227  KCAL/ANGSTROM
     32         11  C    CARTESIAN Y    -0.447408     -0.516160  KCAL/ANGSTROM
     33         11  C    CARTESIAN Z    -0.487422      0.552431  KCAL/ANGSTROM
     34         12  C    CARTESIAN X    -3.808877      0.950539  KCAL/ANGSTROM
     35         12  C    CARTESIAN Y    -0.787050      0.342672  KCAL/ANGSTROM
     36         12  C    CARTESIAN Z     0.315412      0.056789  KCAL/ANGSTROM
     37         13  C    CARTESIAN X    -5.178300     -1.161057  KCAL/ANGSTROM
     38         13  C    CARTESIAN Y    -1.020503     -0.499228  KCAL/ANGSTROM
     39         13  C    CARTESIAN Z     0.417162     -0.256604  KCAL/ANGSTROM
     40         14  C    CARTESIAN X    -6.070010     -0.476429  KCAL/ANGSTROM
     41         14  C    CARTESIAN Y     0.043382      0.220714  KCAL/ANGSTROM
     42         14  C    CARTESIAN Z     0.559919      0.113305  KCAL/ANGSTROM
     43         15  C    CARTESIAN X    -5.584788      0.382837  KCAL/ANGSTROM
     44         15  C    CARTESIAN Y     1.353299     -0.032173  KCAL/ANGSTROM
     45         15  C    CARTESIAN Z     0.616862     -0.342635  KCAL/ANGSTROM
     46         16  C    CARTESIAN X    -4.223324     -0.179313  KCAL/ANGSTROM
     47         16  C    CARTESIAN Y     1.600349     -0.969460  KCAL/ANGSTROM
     48         16  C    CARTESIAN Z     0.521638     -0.002065  KCAL/ANGSTROM
     49         17  C    CARTESIAN X     3.924036     -0.012758  KCAL/ANGSTROM
     50         17  C    CARTESIAN Y    -0.367518      0.617524  KCAL/ANGSTROM
     51         17  C    CARTESIAN Z     0.887507     -0.032586  KCAL/ANGSTROM
     52         18  C    CARTESIAN X     4.976746     -0.866964  KCAL/ANGSTROM
     53         18  C    CARTESIAN Y     0.403536     -1.002505  KCAL/ANGSTROM
     54         18  C    CARTESIAN Z     1.371869      0.989147  KCAL/ANGSTROM
     55         19  C    CARTESIAN X     5.809627      1.141690  KCAL/ANGSTROM
     56         19  C    CARTESIAN Y     1.082180      0.559103  KCAL/ANGSTROM
     57         19  C    CARTESIAN Z     0.478756     -1.186908  KCAL/ANGSTROM
     58         20  C    CARTESIAN X     5.586602     -0.953793  KCAL/ANGSTROM
     59         20  C    CARTESIAN Y     1.001927     -0.478975  KCAL/ANGSTROM
     60         20  C    CARTESIAN Z    -0.894525     -0.378428  KCAL/ANGSTROM
     61         21  C    CARTESIAN X     4.531156      1.140626  KCAL/ANGSTROM
     62         21  C    CARTESIAN Y     0.232636      0.936622  KCAL/ANGSTROM
     63         21  C    CARTESIAN Z    -1.382537     -0.275154  KCAL/ANGSTROM
     64         22  O    CARTESIAN X     2.887519      0.184945  KCAL/ANGSTROM
     65         22  O    CARTESIAN Y    -2.351242     -1.881039  KCAL/ANGSTROM
     66         22  O    CARTESIAN Z    -1.576316     -1.051074  KCAL/ANGSTROM
     67         23  O    CARTESIAN X    -8.033737      0.044210  KCAL/ANGSTROM
     68         23  O    CARTESIAN Y    -1.422802     -0.280900  KCAL/ANGSTROM
     69         23  O    CARTESIAN Z     1.509622     -0.036146  KCAL/ANGSTROM
     70         24  O    CARTESIAN X    -8.459405      0.110885  KCAL/ANGSTROM
     71         24  O    CARTESIAN Y     0.994861      0.104633  KCAL/ANGSTROM
     72         24  O    CARTESIAN Z     0.997769      0.148510  KCAL/ANGSTROM
     73         25  O    CARTESIAN X     7.887648      0.386099  KCAL/ANGSTROM
     74         25  O    CARTESIAN Y     2.609997      0.006405  KCAL/ANGSTROM
     75         25  O    CARTESIAN Z     0.006200     -0.309429  KCAL/ANGSTROM
     76         26  O    CARTESIAN X     6.602585      0.078900  KCAL/ANGSTROM
     77         26  O    CARTESIAN Y     2.937329     -0.270458  KCAL/ANGSTROM
     78         26  O    CARTESIAN Z     2.134812     -0.481017  KCAL/ANGSTROM
     79         27  S    CARTESIAN X     0.775308      0.156905  KCAL/ANGSTROM
     80         27  S    CARTESIAN Y     0.608953     -0.725910  KCAL/ANGSTROM
     81         27  S    CARTESIAN Z    -0.059959     -0.439925  KCAL/ANGSTROM
     82         28  S    CARTESIAN X    -7.776095     -0.093966  KCAL/ANGSTROM
     83         28  S    CARTESIAN Y    -0.254173      0.041723  KCAL/ANGSTROM
     84         28  S    CARTESIAN Z     0.669392      0.156173  KCAL/ANGSTROM
     85         29  S    CARTESIAN X     7.124969     -0.702507  KCAL/ANGSTROM
     86         29  S    CARTESIAN Y     2.036333     -0.292170  KCAL/ANGSTROM
     87         29  S    CARTESIAN Z     1.109671      1.059318  KCAL/ANGSTROM
     88         30  H    CARTESIAN X    -1.711187     -0.269300  KCAL/ANGSTROM
     89         30  H    CARTESIAN Y     1.810576     -0.607818  KCAL/ANGSTROM
     90         30  H    CARTESIAN Z     0.652378     -0.167805  KCAL/ANGSTROM
     91         31  H    CARTESIAN X     1.018643      0.020510  KCAL/ANGSTROM
     92         31  H    CARTESIAN Y    -3.274527      0.453780  KCAL/ANGSTROM
     93         31  H    CARTESIAN Z    -2.003712      0.356689  KCAL/ANGSTROM
     94         32  H    CARTESIAN X    -0.715396     -0.088177  KCAL/ANGSTROM
     95         32  H    CARTESIAN Y    -3.361385      0.345002  KCAL/ANGSTROM
     96         32  H    CARTESIAN Z    -1.949300     -0.135703  KCAL/ANGSTROM
     97         33  H    CARTESIAN X    -8.577523      0.096690  KCAL/ANGSTROM
     98         33  H    CARTESIAN Y     0.045280      0.024759  KCAL/ANGSTROM
     99         33  H    CARTESIAN Z    -1.519600     -0.003616  KCAL/ANGSTROM
    100         34  H    CARTESIAN X    -8.887309      0.072933  KCAL/ANGSTROM
    101         34  H    CARTESIAN Y    -1.485727      0.306813  KCAL/ANGSTROM
    102         34  H    CARTESIAN Z    -0.990303      0.225654  KCAL/ANGSTROM
    103         35  H    CARTESIAN X     9.024876     -0.117021  KCAL/ANGSTROM
    104         35  H    CARTESIAN Y     0.706413      0.097137  KCAL/ANGSTROM
    105         35  H    CARTESIAN Z     1.478582      0.390103  KCAL/ANGSTROM
    106         36  H    CARTESIAN X     8.293935     -0.146247  KCAL/ANGSTROM
    107         36  H    CARTESIAN Y     1.088254      0.167091  KCAL/ANGSTROM
    108         36  H    CARTESIAN Z     2.905870     -0.187243  KCAL/ANGSTROM
    109         37  H    CARTESIAN X    -3.128078      0.158331  KCAL/ANGSTROM
    110         37  H    CARTESIAN Y    -1.634704     -0.070806  KCAL/ANGSTROM
    111         37  H    CARTESIAN Z     0.207867     -0.072967  KCAL/ANGSTROM
    112         38  H    CARTESIAN X    -5.531577      0.023486  KCAL/ANGSTROM
    113         38  H    CARTESIAN Y    -2.060641     -0.035013  KCAL/ANGSTROM
    114         38  H    CARTESIAN Z     0.390143      0.328891  KCAL/ANGSTROM
    115         39  H    CARTESIAN X    -6.267192     -0.022944  KCAL/ANGSTROM
    116         39  H    CARTESIAN Y     2.207394      0.188188  KCAL/ANGSTROM
    117         39  H    CARTESIAN Z     0.740066      0.258331  KCAL/ANGSTROM
    118         40  H    CARTESIAN X    -3.852543      0.038270  KCAL/ANGSTROM
    119         40  H    CARTESIAN Y     2.627125      0.129288  KCAL/ANGSTROM
    120         40  H    CARTESIAN Z     0.566322     -0.067215  KCAL/ANGSTROM
    121         41  H    CARTESIAN X     3.281801      0.000934  KCAL/ANGSTROM
    122         41  H    CARTESIAN Y    -0.910201      0.046896  KCAL/ANGSTROM
    123         41  H    CARTESIAN Z     1.583831      0.137043  KCAL/ANGSTROM
    124         42  H    CARTESIAN X     5.130457     -0.060280  KCAL/ANGSTROM
    125         42  H    CARTESIAN Y     0.463086      0.191496  KCAL/ANGSTROM
    126         42  H    CARTESIAN Z     2.455657     -0.314117  KCAL/ANGSTROM
    127         43  H    CARTESIAN X     6.230993     -0.045426  KCAL/ANGSTROM
    128         43  H    CARTESIAN Y     1.531718      0.012100  KCAL/ANGSTROM
    129         43  H    CARTESIAN Z    -1.609014      0.024018  KCAL/ANGSTROM
    130         44  H    CARTESIAN X     4.356414      0.034414  KCAL/ANGSTROM
    131         44  H    CARTESIAN Y     0.162864      0.077996  KCAL/ANGSTROM
    132         44  H    CARTESIAN Z    -2.458056     -0.189981  KCAL/ANGSTROM




   ATOM   CHEMICAL          X               Y               Z
  NUMBER   SYMBOL      (ANGSTROMS)     (ANGSTROMS)     (ANGSTROMS)

     1       N         -1.11694358  *  -1.11079941  *  -0.76528243  *
     2       N         -1.95117045  *   0.86039772  *   0.31130665  *
     3       N          0.13212983  *  -2.85099542  *  -1.74431728  *
     4       N         -8.23531078  *  -0.70753040  *  -0.92622705  *
     5       N          8.12724693  *   0.89702726  *   1.91942534  *
     6       C          1.26594358  *  -0.89329193  *  -0.79343516  *
     7       C          0.12267938  *  -1.66552792  *  -1.12671889  *
     8       C         -0.96470456  *   0.07743580  *  -0.17166364  *
     9       C         -3.32889531  *   0.52599267  *   0.36257142  *
    10       C          2.60164179  *  -1.30201759  *  -1.00055214  *
    11       C          3.70918174  *  -0.44740845  *  -0.48742201  *
    12       C         -3.80887721  *  -0.78704975  *   0.31541180  *
    13       C         -5.17830040  *  -1.02050274  *   0.41716167  *
    14       C         -6.07000973  *   0.04338199  *   0.55991893  *
    15       C         -5.58478814  *   1.35329890  *   0.61686184  *
    16       C         -4.22332384  *   1.60034905  *   0.52163766  *
    17       C          3.92403632  *  -0.36751777  *   0.88750706  *
    18       C          4.97674597  *   0.40353602  *   1.37186864  *
    19       C          5.80962699  *   1.08217992  *   0.47875596  *
    20       C          5.58660234  *   1.00192692  *  -0.89452537  *
    21       C          4.53115636  *   0.23263572  *  -1.38253707  *
    22       O          2.88751856  *  -2.35124222  *  -1.57631590  *
    23       O         -8.03373730  *  -1.42280246  *   1.50962206  *
    24       O         -8.45940479  *   0.99486106  *   0.99776946  *
    25       O          7.88764829  *   2.60999701  *   0.00619993  *
    26       O          6.60258541  *   2.93732885  *   2.13481177  *
    27       S          0.77530794  *   0.60895266  *  -0.05995911  *
    28       S         -7.77609528  *  -0.25417260  *   0.66939173  *
    29       S          7.12496943  *   2.03633253  *   1.10967094  *
    30       H         -1.71118719  *   1.81057618  *   0.65237756  *
    31       H          1.01864320  *  -3.27452734  *  -2.00371246  *
    32       H         -0.71539649  *  -3.36138462  *  -1.94929984  *
    33       H         -8.57752273  *   0.04528034  *  -1.51960038  *
    34       H         -8.88730922  *  -1.48572724  *  -0.99030288  *
    35       H          9.02487645  *   0.70641280  *   1.47858200  *
    36       H          8.29393513  *   1.08825428  *   2.90586966  *
    37       H         -3.12807797  *  -1.63470373  *   0.20786709  *
    38       H         -5.53157677  *  -2.06064127  *   0.39014330  *
    39       H         -6.26719194  *   2.20739409  *   0.74006590  *
    40       H         -3.85254323  *   2.62712546  *   0.56632159  *
    41       H          3.28180064  *  -0.91020065  *   1.58383090  *
    42       H          5.13045729  *   0.46308628  *   2.45565709  *
    43       H          6.23099319  *   1.53171834  *  -1.60901402  *
    44       H          4.35641416  *   0.16286449  *  -2.45805590  *

                             CARTESIAN COORDINATES

   1    N       -1.116943581    -1.110799413    -0.765282434
   2    N       -1.951170451     0.860397719     0.311306646
   3    N        0.132129833    -2.850995424    -1.744317279
   4    N       -8.235310777    -0.707530405    -0.926227049
   5    N        8.127246932     0.897027263     1.919425342
   6    C        1.265943577    -0.893291928    -0.793435164
   7    C        0.122679382    -1.665527924    -1.126718893
   8    C       -0.964704563     0.077435804    -0.171663637
   9    C       -3.328895314     0.525992672     0.362571421
  10    C        2.601641793    -1.302017590    -1.000552142
  11    C        3.709181735    -0.447408447    -0.487422010
  12    C       -3.808877210    -0.787049749     0.315411801
  13    C       -5.178300397    -1.020502745     0.417161667
  14    C       -6.070009726     0.043381995     0.559918928
  15    C       -5.584788140     1.353298899     0.616861838
  16    C       -4.223323839     1.600349045     0.521637659
  17    C        3.924036318    -0.367517773     0.887507063
  18    C        4.976745968     0.403536017     1.371868640
  19    C        5.809626988     1.082179924     0.478755959
  20    C        5.586602343     1.001926924    -0.894525373
  21    C        4.531156365     0.232635722    -1.382537067
  22    O        2.887518564    -2.351242221    -1.576315902
  23    O       -8.033737301    -1.422802463     1.509622064
  24    O       -8.459404791     0.994861058     0.997769464
  25    O        7.887648294     2.609997012     0.006199933
  26    O        6.602585411     2.937328853     2.134811772
  27    S        0.775307938     0.608952658    -0.059959108
  28    S       -7.776095283    -0.254172596     0.669391731
  29    S        7.124969429     2.036332532     1.109670938
  30    H       -1.711187193     1.810576184     0.652377563
  31    H        1.018643203    -3.274527341    -2.003712461
  32    H       -0.715396493    -3.361384618    -1.949299844
  33    H       -8.577522731     0.045280342    -1.519600384
  34    H       -8.887309219    -1.485727241    -0.990302879
  35    H        9.024876450     0.706412802     1.478582001
  36    H        8.293935131     1.088254283     2.905869660
  37    H       -3.128077971    -1.634703731     0.207867085
  38    H       -5.531576769    -2.060641273     0.390143304
  39    H       -6.267191943     2.207394094     0.740065898
  40    H       -3.852543229     2.627125460     0.566321586
  41    H        3.281800643    -0.910200650     1.583830905
  42    H        5.130457289     0.463086278     2.455657091
  43    H        6.230993187     1.531718341    -1.609014022
  44    H        4.356414162     0.162864492    -2.458055902


           Empirical Formula: C16 H15 N5 O5 S3  =    44 atoms



      MOLECULAR POINT GROUP   :   C1  


                  EIGENVALUES  
 -38.37558 -37.79191 -35.85616 -35.81878 -35.79554 -31.48044 -31.05784 -30.66202
 -29.38998 -29.31233 -28.40264 -27.79839 -27.73745 -26.76047 -26.54202 -26.46283
 -26.16363 -24.71568 -23.65766 -22.53306 -22.20342 -21.71776 -21.39000 -20.47212
 -19.82228 -19.78705 -19.52267 -18.41404 -17.91163 -17.49054 -17.07462 -16.80496
 -16.76631 -16.52025 -16.49308 -16.28704 -16.11846 -16.00080 -15.83844 -15.73596
 -15.42293 -15.27563 -15.16171 -14.79843 -14.78607 -14.72344 -14.55279 -14.51898
 -14.41176 -14.03089 -13.87639 -13.71047 -13.65261 -13.13050 -12.86211 -12.80047
 -12.64937 -12.49838 -12.42777 -12.33901 -12.28487 -12.22082 -12.17170 -11.83409
 -11.81517 -11.29340 -11.11485 -10.86895 -10.81828 -10.74537 -10.71718 -10.55783
 -10.38831 -10.33353  -9.62380  -8.82638  -1.28430  -0.96020  -0.86676  -0.43195
  -0.38987  -0.25264  -0.22149   0.22446   0.25472   0.29062   0.61925   0.67364
   0.76280   0.79532   1.33785   1.39040   1.70309   1.79963   1.81914   2.17604
   2.34455   2.42865   2.59774   2.61700   2.75303   2.81342   2.91721   3.06389
   3.49778   3.61493   3.72999   3.83565   4.01242   4.08350   4.19310   4.23514
   4.25770   4.37278   4.39636   4.42760   4.44458   4.47022   4.50307   4.52012
   4.61090   4.64095   4.72830   4.76219   4.83563   5.24283   5.26601   5.32845
   5.38664   5.44552   5.51009   5.66093   5.68083   5.72202   5.81475   5.81728
   5.87521   5.90117   5.93349   5.96916   6.08821   6.20854   6.25599   6.68002
   6.69315   6.72410


              NET ATOMIC CHARGES AND DIPOLE CONTRIBUTIONS

  ATOM NO.   TYPE          CHARGE      No. of ELECS.   s-Pop       p-Pop       d-Pop       
    1          N          -0.638531        5.6385     1.77264     3.86589
    2          N          -0.430744        5.4307     1.52318     3.90756
    3          N          -0.477782        5.4778     1.50984     3.96794
    4          N          -0.927311        5.9273     1.66746     4.25985
    5          N          -0.920699        5.9207     1.66843     4.25227
    6          C          -0.644145        4.6441     1.05336     3.59078
    7          C           0.517383        3.4826     1.05367     2.42894
    8          C           0.382144        3.6179     1.10800     2.50986
    9          C           0.240476        3.7595     1.06484     2.69469
   10          C           0.559349        3.4407     1.08151     2.35914
   11          C          -0.083473        4.0835     1.08517     2.99830
   12          C          -0.247757        4.2478     1.08332     3.16444
   13          C          -0.004127        4.0041     1.09330     2.91082
   14          C          -0.440088        4.4401     1.09991     3.34018
   15          C          -0.007046        4.0070     1.09257     2.91447
   16          C          -0.259342        4.2593     1.08246     3.17688
   17          C          -0.160244        4.1602     1.08456     3.07568
   18          C          -0.056627        4.0566     1.09091     2.96571
   19          C          -0.379180        4.3792     1.10701     3.27217
   20          C          -0.050581        4.0506     1.09238     2.95820
   21          C          -0.154689        4.1547     1.08510     3.06959
   22          O          -0.640820        6.6408     1.88111     4.75971
   23          O          -1.019017        7.0190     1.89342     5.12560
   24          O          -1.027195        7.0272     1.89322     5.13397
   25          O          -1.013603        7.0136     1.89261     5.12099
   26          O          -1.027076        7.0271     1.89312     5.13395
   27          S           0.139241        5.8608     1.89187     3.83352     0.13537
   28          S           2.462343        3.5377     1.16211     1.91456     0.46099
   29          S           2.455223        3.5448     1.16413     1.91634     0.46432
   30          H           0.380275        0.6197     0.61973
   31          H           0.355521        0.6445     0.64448
   32          H           0.349408        0.6506     0.65059
   33          H           0.321785        0.6782     0.67822
   34          H           0.320239        0.6798     0.67976
   35          H           0.322070        0.6779     0.67793
   36          H           0.321522        0.6785     0.67848
   37          H           0.197697        0.8023     0.80230
   38          H           0.185953        0.8140     0.81405
   39          H           0.188045        0.8120     0.81195
   40          H           0.187315        0.8127     0.81269
   41          H           0.175154        0.8248     0.82485
   42          H           0.182604        0.8174     0.81740
   43          H           0.189147        0.8109     0.81085
   44          H           0.177185        0.8228     0.82282
 DIPOLE           X         Y         Z       TOTAL
 POINT-CHG.    -1.971    -1.701    -2.313     3.482
 HYBRID         0.389    -0.179    -0.238     0.490
 SUM           -1.581    -1.880    -2.551     3.541


          ATOMIC ORBITAL ELECTRON POPULATIONS

     Atom    s        px        py        pz      x^2-y^2     xz        z^2       yz        xy
    1  N   1.77264   1.29103   1.19906   1.37580
    2  N   1.52318   1.11143   1.25575   1.54038
    3  N   1.50984   1.25151   1.21605   1.50038
    4  N   1.66746   1.62530   1.31590   1.31866
    5  N   1.66843   1.39421   1.59321   1.26486
    6  C   1.05336   1.03580   1.10110   1.45388
    7  C   1.05367   0.83900   0.81261   0.77733
    8  C   1.10800   0.87002   0.83156   0.80827
    9  C   1.06484   0.78979   0.98407   0.92084
   10  C   1.08151   0.88742   0.78326   0.68846
   11  C   1.08517   1.00281   0.99174   1.00376
   12  C   1.08332   1.04206   1.04086   1.08152
   13  C   1.09330   0.97364   1.06480   0.87238
   14  C   1.09991   1.09251   1.03763   1.21004
   15  C   1.09257   1.01537   1.02184   0.87727
   16  C   1.08246   1.00188   1.07842   1.09658
   17  C   1.08456   1.03591   1.02888   1.01089
   18  C   1.09091   0.94974   0.93581   1.08016
   19  C   1.10701   1.10862   1.12399   1.03956
   20  C   1.09238   0.99466   0.96339   1.00015
   21  C   1.08510   0.98480   0.99809   1.08669
   22  O   1.88111   1.88475   1.37257   1.50238
   23  O   1.89342   1.85585   1.56003   1.70971
   24  O   1.89322   1.77579   1.52499   1.83319
   25  O   1.89261   1.73861   1.78621   1.59617
   26  O   1.89312   1.80512   1.69527   1.63357
   27  S   1.89187   0.90449   1.20614   1.72289   0.04502   0.01717   0.03144   0.02446   0.01727
   28  S   1.16211   0.70119   0.59818   0.61519   0.13437   0.04161   0.09765   0.10056   0.08679
   29  S   1.16413   0.67370   0.62629   0.61635   0.04219   0.11917   0.08805   0.11109   0.10382
   30  H   0.61973
   31  H   0.64448
   32  H   0.65059
   33  H   0.67822
   34  H   0.67976
   35  H   0.67793
   36  H   0.67848
   37  H   0.80230
   38  H   0.81405
   39  H   0.81195
   40  H   0.81269
   41  H   0.82485
   42  H   0.81740
   43  H   0.81085
   44  H   0.82282

 **********************
 *                    *
 * JOB ENDED NORMALLY *
 *                    *
 **********************



 TOTAL JOB TIME:             6.90 SECONDS

 == MOPAC DONE ==
