 *******************************************************************************
 **                                                                           **
 **                              MOPAC v23.2.2                                **
 **                                                                           **
 *******************************************************************************
 **          Digital Object Identifier (DOI): 10.5281/zenodo.6511958          **
 **    Visit the DOI location for information on how to cite this program.    **
 *******************************************************************************

                              PM7 CALCULATION RESULTS

 *******************************************************************************
 *  CALCULATION DONE: (MAX THREADS = 24)             Wed Mar 18 14:16:29 2026  *
 *  PM7        - The PM7 Hamiltonian to be used
 *
 *
 *
 *                 CHARGE ON SYSTEM = 0
 *
 *
 *
 *  EPS=78.4   - USE ANDREAS KLAMT'S COSMO IMPLICIT SOLVATION MODEL
 *  T=         - A TIME OF 172800.0 SECONDS REQUESTED
 *  DUMP=N     - RESTART FILE WRITTEN EVERY 7200.0 SECONDS REQUESTED
 *******************************************************************************
PM7 CHARGE=0 EPS=78.4


   ATOM   CHEMICAL          X               Y               Z
  NUMBER   SYMBOL      (ANGSTROMS)     (ANGSTROMS)     (ANGSTROMS)

     1       N          1.05320000  *  -1.36190000  *   0.90350000  *
     2       N          1.83150000  *   0.16850000  *  -0.76870000  *
     3       N         -0.13440000  *  -2.75600000  *   2.31870000  *
     4       N          7.99020000  *   1.12580000  *   1.22180000  *
     5       N         -7.03630000  *   2.20740000  *  -2.00160000  *
     6       C         -1.26390000  *  -1.43790000  *   0.63570000  *
     7       C         -0.14500000  *  -1.87710000  *   1.30560000  *
     8       C          0.88430000  *  -0.53640000  *  -0.10430000  *
     9       C          3.23140000  *   0.14120000  *  -0.62400000  *
    10       C         -2.63860000  *  -1.84780000  *   0.82650000  *
    11       C         -3.75950000  *  -0.91910000  *   0.51460000  *
    12       C          3.99390000  *   1.06620000  *  -1.36260000  *
    13       C          5.38740000  *   1.11960000  *  -1.25340000  *
    14       C          6.03770000  *   0.24470000  *  -0.38610000  *
    15       C          5.31060000  *  -0.68650000  *   0.35400000  *
    16       C          3.91640000  *  -0.72590000  *   0.23790000  *
    17       C         -4.89510000  *  -1.43100000  *  -0.13000000  *
    18       C         -5.97670000  *  -0.59470000  *  -0.41410000  *
    19       C         -5.91940000  *   0.75330000  *  -0.04620000  *
    20       C         -4.80520000  *   1.26620000  *   0.62530000  *
    21       C         -3.72500000  *   0.42640000  *   0.90980000  *
    22       O         -2.95060000  *  -2.96020000  *   1.25420000  *
    23       O          8.33150000  *   1.16670000  *  -1.24830000  *
    24       O          8.27760000  *  -1.05790000  *  -0.03630000  *
    25       O         -7.14530000  *   3.03370000  *   0.34930000  *
    26       O         -8.50820000  *   1.00520000  *  -0.32440000  *
    27       S         -0.76780000  *  -0.35420000  *  -0.59540000  *
    28       S          7.80180000  *   0.29050000  *  -0.22850000  *
    29       S         -7.30890000  *   1.80390000  *  -0.39070000  *
    30       H          1.50560000  *   0.75620000  *  -1.52500000  *
    31       H          0.75580000  *  -3.18800000  *   2.54400000  *
    32       H         -0.92320000  *  -3.39390000  *   2.42490000  *
    33       H          8.45960000  *   2.01310000  *   1.03330000  *
    34       H          7.11610000  *   1.25590000  *   1.72980000  *
    35       H         -6.88240000  *   3.21510000  *  -2.07010000  *
    36       H         -6.28850000  *   1.67240000  *  -2.43940000  *
    37       H          3.50440000  *   1.76280000  *  -2.04020000  *
    38       H          5.94690000  *   1.84000000  *  -1.84620000  *
    39       H          5.81400000  *  -1.38750000  *   1.01750000  *
    40       H          3.38240000  *  -1.46440000  *   0.82990000  *
    41       H         -4.94340000  *  -2.48520000  *  -0.39980000  *
    42       H         -6.86120000  *  -1.00120000  *  -0.90260000  *
    43       H         -4.77700000  *   2.30640000  *   0.94570000  *
    44       H         -2.87670000  *   0.82560000  *   1.46230000  *



          CARTESIAN COORDINATES 

    NO.       ATOM           X           Y           Z

     1         N          1.0532     -1.3619      0.9035
     2         N          1.8315      0.1685     -0.7687
     3         N         -0.1344     -2.7560      2.3187
     4         N          7.9902      1.1258      1.2218
     5         N         -7.0363      2.2074     -2.0016
     6         C         -1.2639     -1.4379      0.6357
     7         C         -0.1450     -1.8771      1.3056
     8         C          0.8843     -0.5364     -0.1043
     9         C          3.2314      0.1412     -0.6240
    10         C         -2.6386     -1.8478      0.8265
    11         C         -3.7595     -0.9191      0.5146
    12         C          3.9939      1.0662     -1.3626
    13         C          5.3874      1.1196     -1.2534
    14         C          6.0377      0.2447     -0.3861
    15         C          5.3106     -0.6865      0.3540
    16         C          3.9164     -0.7259      0.2379
    17         C         -4.8951     -1.4310     -0.1300
    18         C         -5.9767     -0.5947     -0.4141
    19         C         -5.9194      0.7533     -0.0462
    20         C         -4.8052      1.2662      0.6253
    21         C         -3.7250      0.4264      0.9098
    22         O         -2.9506     -2.9602      1.2542
    23         O          8.3315      1.1667     -1.2483
    24         O          8.2776     -1.0579     -0.0363
    25         O         -7.1453      3.0337      0.3493
    26         O         -8.5082      1.0052     -0.3244
    27         S         -0.7678     -0.3542     -0.5954
    28         S          7.8018      0.2905     -0.2285
    29         S         -7.3089      1.8039     -0.3907
    30         H          1.5056      0.7562     -1.5250
    31         H          0.7558     -3.1880      2.5440
    32         H         -0.9232     -3.3939      2.4249
    33         H          8.4596      2.0131      1.0333
    34         H          7.1161      1.2559      1.7298
    35         H         -6.8824      3.2151     -2.0701
    36         H         -6.2885      1.6724     -2.4394
    37         H          3.5044      1.7628     -2.0402
    38         H          5.9469      1.8400     -1.8462
    39         H          5.8140     -1.3875      1.0175
    40         H          3.3824     -1.4644      0.8299
    41         H         -4.9434     -2.4852     -0.3998
    42         H         -6.8612     -1.0012     -0.9026
    43         H         -4.7770      2.3064      0.9457
    44         H         -2.8767      0.8256      1.4623

 General Reference for PM7:
 "Optimization of Parameters for Semiempirical Methods VI: More Modifications to the 
 NDDO Approximations and Re-optimization of Parameters", J. J. P. Stewart, J. Mol. Mod., 1:32, 19 (2013)
 https://link.springer.com/article/10.1007/s00894-012-1667-x

           Empirical Formula: C16 H15 N5 O5 S3  =    44 atoms



      MOLECULAR POINT GROUP   :   C1  


      RHF CALCULATION, NO. OF DOUBLY OCCUPIED LEVELS = 76


          Geometry optimization using L-BFGS
 CYCLE:     1 TIME:   0.723 TIME LEFT:  2.00D  GRAD.:   163.062 HEAT: -137.2101
 CYCLE:     2 TIME:   0.035 TIME LEFT:  2.00D  GRAD.:   160.369 HEAT: -137.4714
 CYCLE:     3 TIME:   0.043 TIME LEFT:  2.00D  GRAD.:    50.022 HEAT: -147.6547
 CYCLE:     4 TIME:   0.047 TIME LEFT:  2.00D  GRAD.:   160.433 HEAT: -137.4716
 CYCLE:     5 TIME:   0.043 TIME LEFT:  2.00D  GRAD.:    50.049 HEAT: -147.6546
 CYCLE:     6 TIME:   0.039 TIME LEFT:  2.00D  GRAD.:    45.227 HEAT: -148.9538
 CYCLE:     7 TIME:   0.035 TIME LEFT:  2.00D  GRAD.:    37.546 HEAT: -150.2378
 CYCLE:     8 TIME:   0.039 TIME LEFT:  2.00D  GRAD.:    70.382 HEAT: -151.2230
 CYCLE:     9 TIME:   0.039 TIME LEFT:  2.00D  GRAD.:    27.301 HEAT: -152.1429
 CYCLE:    10 TIME:   0.035 TIME LEFT:  2.00D  GRAD.:    18.526 HEAT: -152.3568
 CYCLE:    11 TIME:   0.039 TIME LEFT:  2.00D  GRAD.:    14.884 HEAT: -152.6280
 CYCLE:    12 TIME:   0.035 TIME LEFT:  2.00D  GRAD.:    24.414 HEAT: -153.2476
 CYCLE:    13 TIME:   0.039 TIME LEFT:  2.00D  GRAD.:    18.415 HEAT: -153.7814
 CYCLE:    14 TIME:   0.035 TIME LEFT:  2.00D  GRAD.:    13.253 HEAT: -153.9405
 CYCLE:    15 TIME:   0.047 TIME LEFT:  2.00D  GRAD.:    13.749 HEAT: -154.2185
 CYCLE:    16 TIME:   0.035 TIME LEFT:  2.00D  GRAD.:    17.552 HEAT: -154.1629
 CYCLE:    17 TIME:   0.039 TIME LEFT:  2.00D  GRAD.:    11.754 HEAT: -154.3190
 CYCLE:    18 TIME:   0.035 TIME LEFT:  2.00D  GRAD.:    12.293 HEAT: -154.3654
 CYCLE:    19 TIME:   0.035 TIME LEFT:  2.00D  GRAD.:     8.700 HEAT: -154.3778
 CYCLE:    20 TIME:   0.035 TIME LEFT:  2.00D  GRAD.:     8.518 HEAT: -154.4945
 CYCLE:    21 TIME:   0.039 TIME LEFT:  2.00D  GRAD.:    11.188 HEAT: -154.5043
 CYCLE:    22 TIME:   0.039 TIME LEFT:  2.00D  GRAD.:    24.593 HEAT: -154.5712
 CYCLE:    23 TIME:   0.031 TIME LEFT:  2.00D  GRAD.:     9.357 HEAT: -154.6625
 CYCLE:    24 TIME:   0.035 TIME LEFT:  2.00D  GRAD.:     6.423 HEAT: -154.7342
 CYCLE:    25 TIME:   0.039 TIME LEFT:  2.00D  GRAD.:     8.848 HEAT: -154.8292
 CYCLE:    26 TIME:   0.035 TIME LEFT:  2.00D  GRAD.:    15.242 HEAT: -154.9106
 CYCLE:    27 TIME:   0.039 TIME LEFT:  2.00D  GRAD.:     7.635 HEAT: -154.9550
 CYCLE:    28 TIME:   0.035 TIME LEFT:  2.00D  GRAD.:     6.006 HEAT: -154.9809
 CYCLE:    29 TIME:   0.035 TIME LEFT:  2.00D  GRAD.:     6.879 HEAT: -155.0124
 CYCLE:    30 TIME:   0.039 TIME LEFT:  2.00D  GRAD.:    12.025 HEAT: -155.1188
 CYCLE:    31 TIME:   0.031 TIME LEFT:  2.00D  GRAD.:     6.541 HEAT: -155.2475
 CYCLE:    32 TIME:   0.035 TIME LEFT:  2.00D  GRAD.:     5.827 HEAT: -155.2658
 CYCLE:    33 TIME:   0.035 TIME LEFT:  2.00D  GRAD.:     7.094 HEAT: -155.3841
 CYCLE:    34 TIME:   0.039 TIME LEFT:  2.00D  GRAD.:    11.040 HEAT: -155.5256
 CYCLE:    35 TIME:   0.039 TIME LEFT:  2.00D  GRAD.:     8.936 HEAT: -155.5754
 CYCLE:    36 TIME:   0.035 TIME LEFT:  2.00D  GRAD.:     5.685 HEAT: -155.5861
 CYCLE:    37 TIME:   0.035 TIME LEFT:  2.00D  GRAD.:     7.532 HEAT: -155.6328
 CYCLE:    38 TIME:   0.035 TIME LEFT:  2.00D  GRAD.:     9.283 HEAT: -155.6648
 CYCLE:    39 TIME:   0.039 TIME LEFT:  2.00D  GRAD.:     9.180 HEAT: -155.7222
 CYCLE:    40 TIME:   0.035 TIME LEFT:  2.00D  GRAD.:     9.698 HEAT: -155.7199
 CYCLE:    41 TIME:   0.035 TIME LEFT:  2.00D  GRAD.:     6.424 HEAT: -155.8694
 CYCLE:    42 TIME:   0.035 TIME LEFT:  2.00D  GRAD.:     5.459 HEAT: -155.9033
 CYCLE:    43 TIME:   0.035 TIME LEFT:  2.00D  GRAD.:     6.131 HEAT: -155.9426
 CYCLE:    44 TIME:   0.039 TIME LEFT:  2.00D  GRAD.:    12.863 HEAT: -155.8155
 CYCLE:    45 TIME:   0.035 TIME LEFT:  2.00D  GRAD.:     7.097 HEAT: -155.9082
 CYCLE:    46 TIME:   0.035 TIME LEFT:  2.00D  GRAD.:     7.687 HEAT: -156.1038
 CYCLE:    47 TIME:   0.039 TIME LEFT:  2.00D  GRAD.:     9.135 HEAT: -156.2388
 CYCLE:    48 TIME:   0.039 TIME LEFT:  2.00D  GRAD.:    12.431 HEAT: -156.3823
 CYCLE:    49 TIME:   0.035 TIME LEFT:  2.00D  GRAD.:    10.536 HEAT: -156.4167
 CYCLE:    50 TIME:   0.039 TIME LEFT:  2.00D  GRAD.:     6.213 HEAT: -156.4526
 CYCLE:    51 TIME:   0.035 TIME LEFT:  2.00D  GRAD.:     5.849 HEAT: -156.4134
 CYCLE:    52 TIME:   0.039 TIME LEFT:  2.00D  GRAD.:     7.997 HEAT: -156.5613
 CYCLE:    53 TIME:   0.035 TIME LEFT:  2.00D  GRAD.:     8.770 HEAT: -156.7337
 CYCLE:    54 TIME:   0.035 TIME LEFT:  2.00D  GRAD.:     8.326 HEAT: -156.7046
 CYCLE:    55 TIME:   0.035 TIME LEFT:  2.00D  GRAD.:     5.635 HEAT: -156.7280
 CYCLE:    56 TIME:   0.035 TIME LEFT:  2.00D  GRAD.:     5.521 HEAT: -156.7156
 CYCLE:    57 TIME:   0.039 TIME LEFT:  2.00D  GRAD.:     7.921 HEAT: -156.8777
 CYCLE:    58 TIME:   0.047 TIME LEFT:  2.00D  GRAD.:     7.601 HEAT: -156.9912
 CYCLE:    59 TIME:   0.047 TIME LEFT:  2.00D  GRAD.:     7.804 HEAT: -156.9453
 CYCLE:    60 TIME:   0.051 TIME LEFT:  2.00D  GRAD.:     8.109 HEAT: -157.1202
 CYCLE:    61 TIME:   0.051 TIME LEFT:  2.00D  GRAD.:     7.587 HEAT: -157.1728
 CYCLE:    62 TIME:   0.047 TIME LEFT:  2.00D  GRAD.:     7.609 HEAT: -157.3916
 CYCLE:    63 TIME:   0.051 TIME LEFT:  2.00D  GRAD.:     9.844 HEAT: -157.4120
 CYCLE:    64 TIME:   0.047 TIME LEFT:  2.00D  GRAD.:    15.058 HEAT: -157.5797
 CYCLE:    65 TIME:   0.047 TIME LEFT:  2.00D  GRAD.:    14.096 HEAT: -157.8616
 CYCLE:    66 TIME:   0.047 TIME LEFT:  2.00D  GRAD.:    12.669 HEAT: -157.9987
 CYCLE:    67 TIME:   0.051 TIME LEFT:  2.00D  GRAD.:     8.874 HEAT: -157.7592
 CYCLE:    68 TIME:   0.047 TIME LEFT:  2.00D  GRAD.:    10.867 HEAT: -157.7218
 CYCLE:    69 TIME:   0.047 TIME LEFT:  2.00D  GRAD.:    10.311 HEAT: -157.7580
 CYCLE:    70 TIME:   0.051 TIME LEFT:  2.00D  GRAD.:    11.641 HEAT: -158.0789
 CYCLE:    71 TIME:   0.047 TIME LEFT:  2.00D  GRAD.:    28.173 HEAT: -158.0328
 CYCLE:    72 TIME:   0.051 TIME LEFT:  2.00D  GRAD.:    14.809 HEAT: -158.0804
 CYCLE:    73 TIME:   0.051 TIME LEFT:  2.00D  GRAD.:    26.567 HEAT: -158.3514
 CYCLE:    74 TIME:   0.047 TIME LEFT:  2.00D  GRAD.:     7.176 HEAT: -158.3836
 CYCLE:    75 TIME:   0.051 TIME LEFT:  2.00D  GRAD.:     7.392 HEAT: -158.3442
 CYCLE:    76 TIME:   0.047 TIME LEFT:  2.00D  GRAD.:    13.734 HEAT: -158.4893
 CYCLE:    77 TIME:   0.051 TIME LEFT:  2.00D  GRAD.:    31.458 HEAT: -158.5416
 CYCLE:    78 TIME:   0.047 TIME LEFT:  2.00D  GRAD.:    10.799 HEAT: -158.7069
 CYCLE:    79 TIME:   0.043 TIME LEFT:  2.00D  GRAD.:     7.620 HEAT: -158.6478
 CYCLE:    80 TIME:   0.047 TIME LEFT:  2.00D  GRAD.:     9.692 HEAT: -158.7531
 CYCLE:    81 TIME:   0.047 TIME LEFT:  2.00D  GRAD.:    14.843 HEAT: -158.5701
 CYCLE:    82 TIME:   0.047 TIME LEFT:  2.00D  GRAD.:    25.994 HEAT: -158.6816
 CYCLE:    83 TIME:   0.047 TIME LEFT:  2.00D  GRAD.:    12.658 HEAT: -158.8451
 CYCLE:    84 TIME:   0.047 TIME LEFT:  2.00D  GRAD.:    11.644 HEAT: -158.9311
 CYCLE:    85 TIME:   0.051 TIME LEFT:  2.00D  GRAD.:    18.079 HEAT: -158.9676
 CYCLE:    86 TIME:   0.047 TIME LEFT:  2.00D  GRAD.:    15.585 HEAT: -159.2279
 CYCLE:    87 TIME:   0.051 TIME LEFT:  2.00D  GRAD.:    18.011 HEAT: -159.4272
 CYCLE:    88 TIME:   0.043 TIME LEFT:  2.00D  GRAD.:     9.826 HEAT: -159.5483
 CYCLE:    89 TIME:   0.051 TIME LEFT:  2.00D  GRAD.:     9.468 HEAT: -159.7447
 CYCLE:    90 TIME:   0.047 TIME LEFT:  2.00D  GRAD.:     7.708 HEAT: -159.8365
 CYCLE:    91 TIME:   0.051 TIME LEFT:  2.00D  GRAD.:    21.016 HEAT: -159.8578
 CYCLE:    92 TIME:   0.047 TIME LEFT:  2.00D  GRAD.:     9.575 HEAT: -159.9360
 CYCLE:    93 TIME:   0.047 TIME LEFT:  2.00D  GRAD.:    16.635 HEAT: -159.7315
 CYCLE:    94 TIME:   0.043 TIME LEFT:  2.00D  GRAD.:     7.409 HEAT: -159.8672
 CYCLE:    95 TIME:   0.047 TIME LEFT:  2.00D  GRAD.:     5.766 HEAT: -159.9291
 CYCLE:    96 TIME:   0.047 TIME LEFT:  2.00D  GRAD.:     8.738 HEAT: -160.0090
 CYCLE:    97 TIME:   0.051 TIME LEFT:  2.00D  GRAD.:    11.826 HEAT: -160.0173
 CYCLE:    98 TIME:   0.047 TIME LEFT:  2.00D  GRAD.:    10.478 HEAT: -159.9783
 CYCLE:    99 TIME:   0.047 TIME LEFT:  2.00D  GRAD.:     6.512 HEAT: -160.0518
 CYCLE:   100 TIME:   0.043 TIME LEFT:  2.00D  GRAD.:     6.002 HEAT: -160.1543
 CYCLE:   101 TIME:   0.047 TIME LEFT:  2.00D  GRAD.:     5.647 HEAT: -160.1735
 CYCLE:   102 TIME:   0.051 TIME LEFT:  2.00D  GRAD.:     5.156 HEAT: -160.2975
 CYCLE:   103 TIME:   0.047 TIME LEFT:  2.00D  GRAD.:     7.950 HEAT: -160.2810
 CYCLE:   104 TIME:   0.047 TIME LEFT:  2.00D  GRAD.:     5.748 HEAT: -160.3047
 CYCLE:   105 TIME:   0.043 TIME LEFT:  2.00D  GRAD.:     5.151 HEAT: -160.3205
 CYCLE:   106 TIME:   0.047 TIME LEFT:  2.00D  GRAD.:     6.741 HEAT: -160.2645
 CYCLE:   107 TIME:   0.047 TIME LEFT:  2.00D  GRAD.:     5.130 HEAT: -160.2973
 CYCLE:   108 TIME:   0.043 TIME LEFT:  2.00D  GRAD.:     5.432 HEAT: -160.3476
 CYCLE:   109 TIME:   0.051 TIME LEFT:  2.00D  GRAD.:     8.585 HEAT: -160.3109
 CYCLE:   110 TIME:   0.051 TIME LEFT:  2.00D  GRAD.:    14.096 HEAT: -160.2159
 CYCLE:   111 TIME:   0.047 TIME LEFT:  2.00D  GRAD.:     6.465 HEAT: -160.2760
 CYCLE:   112 TIME:   0.043 TIME LEFT:  2.00D  GRAD.:     5.534 HEAT: -160.3178
 CYCLE:   113 TIME:   0.047 TIME LEFT:  2.00D  GRAD.:     7.641 HEAT: -160.2785
 CYCLE:   114 TIME:   0.047 TIME LEFT:  2.00D  GRAD.:     8.681 HEAT: -160.3146
 CYCLE:   115 TIME:   0.051 TIME LEFT:  2.00D  GRAD.:    13.878 HEAT: -160.4211
 CYCLE:   116 TIME:   0.043 TIME LEFT:  2.00D  GRAD.:     5.594 HEAT: -160.4099
 CYCLE:   117 TIME:   0.047 TIME LEFT:  2.00D  GRAD.:     5.550 HEAT: -160.5852
 CYCLE:   118 TIME:   0.047 TIME LEFT:  2.00D  GRAD.:     4.662 HEAT: -160.5917
 CYCLE:   119 TIME:   0.047 TIME LEFT:  2.00D  GRAD.:     7.589 HEAT: -160.7339
 CYCLE:   120 TIME:   0.047 TIME LEFT:  2.00D  GRAD.:     8.453 HEAT: -160.7849
 CYCLE:   121 TIME:   0.047 TIME LEFT:  2.00D  GRAD.:     4.940 HEAT: -161.0248
 CYCLE:   122 TIME:   0.043 TIME LEFT:  2.00D  GRAD.:     4.451 HEAT: -161.1560
 CYCLE:   123 TIME:   0.047 TIME LEFT:  2.00D  GRAD.:     5.517 HEAT: -161.1253
 CYCLE:   124 TIME:   0.047 TIME LEFT:  2.00D  GRAD.:     6.092 HEAT: -161.2817
 CYCLE:   125 TIME:   0.043 TIME LEFT:  2.00D  GRAD.:     5.214 HEAT: -161.2879
 CYCLE:   126 TIME:   0.047 TIME LEFT:  2.00D  GRAD.:     4.798 HEAT: -161.3483
 CYCLE:   127 TIME:   0.047 TIME LEFT:  2.00D  GRAD.:     4.837 HEAT: -161.4179
 CYCLE:   128 TIME:   0.043 TIME LEFT:  2.00D  GRAD.:     4.300 HEAT: -161.4611
 CYCLE:   129 TIME:   0.047 TIME LEFT:  2.00D  GRAD.:     7.919 HEAT: -161.3540
 CYCLE:   130 TIME:   0.047 TIME LEFT:  2.00D  GRAD.:     4.151 HEAT: -161.3384
 CYCLE:   131 TIME:   0.047 TIME LEFT:  2.00D  GRAD.:     2.880 HEAT: -161.3550
 CYCLE:   132 TIME:   0.043 TIME LEFT:  2.00D  GRAD.:     3.153 HEAT: -161.3626
 CYCLE:   133 TIME:   0.051 TIME LEFT:  2.00D  GRAD.:     5.939 HEAT: -161.4435
 CYCLE:   134 TIME:   0.047 TIME LEFT:  2.00D  GRAD.:     3.613 HEAT: -161.4005
 CYCLE:   135 TIME:   0.043 TIME LEFT:  2.00D  GRAD.:     2.785 HEAT: -161.4007
 CYCLE:   136 TIME:   0.051 TIME LEFT:  2.00D  GRAD.:     3.729 HEAT: -161.3363
 CYCLE:   137 TIME:   0.047 TIME LEFT:  2.00D  GRAD.:     3.731 HEAT: -161.3156
 CYCLE:   138 TIME:   0.043 TIME LEFT:  2.00D  GRAD.:     2.595 HEAT: -161.3028
 CYCLE:   139 TIME:   0.047 TIME LEFT:  2.00D  GRAD.:     2.339 HEAT: -161.3177
 CYCLE:   140 TIME:   0.047 TIME LEFT:  2.00D  GRAD.:     3.430 HEAT: -161.3435
 CYCLE:   141 TIME:   0.059 TIME LEFT:  2.00D  GRAD.:     3.302 HEAT: -161.3573
 CYCLE:   142 TIME:   0.047 TIME LEFT:  2.00D  GRAD.:     3.559 HEAT: -161.1962
 CYCLE:   143 TIME:   0.047 TIME LEFT:  2.00D  GRAD.:     3.067 HEAT: -161.1949
 CYCLE:   144 TIME:   0.047 TIME LEFT:  2.00D  GRAD.:     2.938 HEAT: -161.1963
 CYCLE:   145 TIME:   0.047 TIME LEFT:  2.00D  GRAD.:     4.685 HEAT: -160.9986
 CYCLE:   146 TIME:   0.047 TIME LEFT:  2.00D  GRAD.:     4.554 HEAT: -161.0413
 CYCLE:   147 TIME:   0.047 TIME LEFT:  2.00D  GRAD.:     2.437 HEAT: -161.0595
 CYCLE:   148 TIME:   0.043 TIME LEFT:  2.00D  GRAD.:     1.940 HEAT: -161.0806
 CYCLE:   149 TIME:   0.051 TIME LEFT:  2.00D  GRAD.:     2.329 HEAT: -161.0900
 CYCLE:   150 TIME:   0.051 TIME LEFT:  2.00D  GRAD.:     5.114 HEAT: -161.0913
 CYCLE:   151 TIME:   0.047 TIME LEFT:  2.00D  GRAD.:     1.965 HEAT: -161.1053
 CYCLE:   152 TIME:   0.043 TIME LEFT:  2.00D  GRAD.:     1.613 HEAT: -161.1122
 CYCLE:   153 TIME:   0.051 TIME LEFT:  2.00D  GRAD.:     2.726 HEAT: -161.2112
 CYCLE:   154 TIME:   0.047 TIME LEFT:  2.00D  GRAD.:     3.764 HEAT: -161.3444
 CYCLE:   155 TIME:   0.047 TIME LEFT:  2.00D  GRAD.:     2.778 HEAT: -161.3522
 CYCLE:   156 TIME:   0.047 TIME LEFT:  2.00D  GRAD.:     2.773 HEAT: -161.0489
 CYCLE:   157 TIME:   0.051 TIME LEFT:  2.00D  GRAD.:     6.056 HEAT: -161.0562
 CYCLE:   158 TIME:   0.047 TIME LEFT:  2.00D  GRAD.:     2.723 HEAT: -161.0583


           HEAT OF FORMATION IS ESSENTIALLY STATIONARY


          CURRENT BEST VALUE OF HEAT OF FORMATION =   -161.460979

 PM7 CHARGE=0 EPS=78.4


  N     1.08820823 +1  -1.50660512 +1   0.61219793 +1
  N     1.77091215 +1   0.23481245 +1  -0.89298067 +1
  N    -0.02224970 +1  -3.05166306 +1   2.00037814 +1
  N     7.74583518 +1   0.89422519 +1   1.42988149 +1
  N    -6.80508846 +1   1.90720376 +1  -2.28994057 +1
  C    -1.28584562 +1  -1.29769623 +1   0.83960956 +1
  C    -0.09832248 +1  -1.99243788 +1   1.19089537 +1
  C     0.85358253 +1  -0.46533322 +1  -0.18858768 +1
  C     3.17881771 +1   0.13920843 +1  -0.76792949 +1
  C    -2.57347597 +1  -1.61897898 +1   1.32277498 +1
  C    -3.72862819 +1  -0.78340007 +1   0.88664753 +1
  C     3.92290521 +1   1.09921335 +1  -1.48469984 +1
  C     5.30120924 +1   1.14659549 +1  -1.34498654 +1
  C     5.95609570 +1   0.24438835 +1  -0.50012112 +1
  C     5.22493365 +1  -0.75018640 +1   0.14989316 +1
  C     3.84040607 +1  -0.80928103 +1   0.02070340 +1
  C    -4.63949325 +1  -1.31725469 +1  -0.02326262 +1
  C    -5.70173317 +1  -0.53360017 +1  -0.46807928 +1
  C    -5.84451729 +1   0.77405385 +1  -0.00274539 +1
  C    -4.94654648 +1   1.29174009 +1   0.93068836 +1
  C    -3.88787148 +1   0.50657780 +1   1.38572570 +1
  O    -2.77761665 +1  -2.56460047 +1   2.08118207 +1
  O     8.19162049 +1   1.47569323 +1  -1.04958541 +1
  O     8.32558734 +1  -0.89961981 +1  -0.28122167 +1
  O    -7.05284328 +1   3.09693636 +1  -0.01107034 +1
  O    -8.40928161 +1   1.04967912 +1  -0.49827707 +1
  S    -0.91214305 +1  -0.00572643 +1  -0.27037090 +1
  S     7.65837326 +1   0.40056770 +1  -0.21586541 +1
  S    -7.14222391 +1   1.76874572 +1  -0.60817856 +1
  H     1.43143311 +1   0.98181996 +1  -1.53222886 +1
  H     0.85543909 +1  -3.50079789 +1   2.22393828 +1
  H    -0.86466655 +1  -3.41285944 +1   2.44090722 +1
  H     8.56084395 +1   0.57193982 +1   1.94681260 +1
  H     7.63039925 +1   1.89121502 +1   1.59938760 +1
  H    -7.58371982 +1   1.69444788 +1  -2.91224451 +1
  H    -6.38452249 +1   2.78725057 +1  -2.58516142 +1
  H     3.42007659 +1   1.81857899 +1  -2.13614977 +1
  H     5.86296649 +1   1.91210749 +1  -1.90120234 +1
  H     5.71738884 +1  -1.49903531 +1   0.78698425 +1
  H     3.29573446 +1  -1.59387292 +1   0.55163456 +1
  H    -4.52460263 +1  -2.34116916 +1  -0.38438084 +1
  H    -6.40739145 +1  -0.96366898 +1  -1.18944522 +1
  H    -5.04517202 +1   2.31605078 +1   1.31411139 +1
  H    -3.19494759 +1   0.90479436 +1   2.13081034 +1



 -------------------------------------------------------------------------------
 PM7 CHARGE=0 EPS=78.4




     HERBERTS TEST WAS SATISFIED IN BFGS                      
     SCF FIELD WAS ACHIEVED                                   


                              PM7 CALCULATION
                                                       MOPAC v23.2.2 Linux
                                                       Wed Mar 18 14:16:37 2026




          FINAL HEAT OF FORMATION =       -161.46098 KCAL/MOL =    -675.55274 KJ/MOL
          VAN DER WAALS AREA      =        413.91 SQUARE ANGSTROMS



          DIELECTRIC ENERGY       =         -2.70578 EV
          COSMO AREA              =        413.91 SQUARE ANGSTROMS
          COSMO VOLUME            =        464.03 CUBIC ANGSTROMS

          GRADIENT NORM           =          4.30007          =       0.64826 PER ATOM
          IONIZATION POTENTIAL    =          8.813646 EV
          HOMO LUMO ENERGIES (EV) =         -8.814 -1.304
          NO. OF FILLED LEVELS    =         76
          MOLECULAR WEIGHT        =        453.5050         POINT GROUP:  C1  

          MOLECULAR DIMENSIONS (Angstroms)

            Atom       Atom       Distance
            H    33    O    26    17.15202
            H    38    H    32     7.60198
            O    24    H    43     4.49031


          SCF CALCULATIONS        =        161

          WALL-CLOCK TIME         =      7.668 SECONDS
          COMPUTATION TIME        =          3 MINUTES AND 3.180 SECONDS



       FINAL  POINT  AND  DERIVATIVES

   PARAMETER     ATOM    TYPE            VALUE        GRADIENT
      1          1  N    CARTESIAN X     1.088208      0.496050  KCAL/ANGSTROM
      2          1  N    CARTESIAN Y    -1.506605     -0.101625  KCAL/ANGSTROM
      3          1  N    CARTESIAN Z     0.612198     -0.021812  KCAL/ANGSTROM
      4          2  N    CARTESIAN X     1.770912     -0.353694  KCAL/ANGSTROM
      5          2  N    CARTESIAN Y     0.234812     -0.376791  KCAL/ANGSTROM
      6          2  N    CARTESIAN Z    -0.892981     -0.367164  KCAL/ANGSTROM
      7          3  N    CARTESIAN X    -0.022250      0.054224  KCAL/ANGSTROM
      8          3  N    CARTESIAN Y    -3.051663     -0.273734  KCAL/ANGSTROM
      9          3  N    CARTESIAN Z     2.000378     -0.538117  KCAL/ANGSTROM
     10          4  N    CARTESIAN X     7.745835     -0.236006  KCAL/ANGSTROM
     11          4  N    CARTESIAN Y     0.894225     -0.136837  KCAL/ANGSTROM
     12          4  N    CARTESIAN Z     1.429881     -0.094542  KCAL/ANGSTROM
     13          5  N    CARTESIAN X    -6.805088      0.207703  KCAL/ANGSTROM
     14          5  N    CARTESIAN Y     1.907204     -0.417084  KCAL/ANGSTROM
     15          5  N    CARTESIAN Z    -2.289941     -0.822813  KCAL/ANGSTROM
     16          6  C    CARTESIAN X    -1.285846     -0.602836  KCAL/ANGSTROM
     17          6  C    CARTESIAN Y    -1.297696      0.444134  KCAL/ANGSTROM
     18          6  C    CARTESIAN Z     0.839610      0.085211  KCAL/ANGSTROM
     19          7  C    CARTESIAN X    -0.098322      0.019869  KCAL/ANGSTROM
     20          7  C    CARTESIAN Y    -1.992438      0.293609  KCAL/ANGSTROM
     21          7  C    CARTESIAN Z     1.190895      0.172769  KCAL/ANGSTROM
     22          8  C    CARTESIAN X     0.853583      0.253176  KCAL/ANGSTROM
     23          8  C    CARTESIAN Y    -0.465333     -0.232001  KCAL/ANGSTROM
     24          8  C    CARTESIAN Z    -0.188588      0.191143  KCAL/ANGSTROM
     25          9  C    CARTESIAN X     3.178818     -0.101448  KCAL/ANGSTROM
     26          9  C    CARTESIAN Y     0.139208     -0.058761  KCAL/ANGSTROM
     27          9  C    CARTESIAN Z    -0.767929     -0.386490  KCAL/ANGSTROM
     28         10  C    CARTESIAN X    -2.573476      0.362260  KCAL/ANGSTROM
     29         10  C    CARTESIAN Y    -1.618979     -0.078983  KCAL/ANGSTROM
     30         10  C    CARTESIAN Z     1.322775     -0.539183  KCAL/ANGSTROM
     31         11  C    CARTESIAN X    -3.728628      0.321477  KCAL/ANGSTROM
     32         11  C    CARTESIAN Y    -0.783400      0.626818  KCAL/ANGSTROM
     33         11  C    CARTESIAN Z     0.886648      0.731536  KCAL/ANGSTROM
     34         12  C    CARTESIAN X     3.922905      0.578894  KCAL/ANGSTROM
     35         12  C    CARTESIAN Y     1.099213     -0.020104  KCAL/ANGSTROM
     36         12  C    CARTESIAN Z    -1.484700     -0.068464  KCAL/ANGSTROM
     37         13  C    CARTESIAN X     5.301209     -0.291427  KCAL/ANGSTROM
     38         13  C    CARTESIAN Y     1.146595     -0.034366  KCAL/ANGSTROM
     39         13  C    CARTESIAN Z    -1.344987     -0.326945  KCAL/ANGSTROM
     40         14  C    CARTESIAN X     5.956096      0.293077  KCAL/ANGSTROM
     41         14  C    CARTESIAN Y     0.244388     -0.032244  KCAL/ANGSTROM
     42         14  C    CARTESIAN Z    -0.500121     -0.206409  KCAL/ANGSTROM
     43         15  C    CARTESIAN X     5.224934      0.306923  KCAL/ANGSTROM
     44         15  C    CARTESIAN Y    -0.750186     -0.400095  KCAL/ANGSTROM
     45         15  C    CARTESIAN Z     0.149893     -0.286175  KCAL/ANGSTROM
     46         16  C    CARTESIAN X     3.840406      0.736430  KCAL/ANGSTROM
     47         16  C    CARTESIAN Y    -0.809281     -0.222672  KCAL/ANGSTROM
     48         16  C    CARTESIAN Z     0.020703      0.474015  KCAL/ANGSTROM
     49         17  C    CARTESIAN X    -4.639493     -0.147037  KCAL/ANGSTROM
     50         17  C    CARTESIAN Y    -1.317255     -0.053164  KCAL/ANGSTROM
     51         17  C    CARTESIAN Z    -0.023263     -0.759130  KCAL/ANGSTROM
     52         18  C    CARTESIAN X    -5.701733      0.067818  KCAL/ANGSTROM
     53         18  C    CARTESIAN Y    -0.533600      0.150718  KCAL/ANGSTROM
     54         18  C    CARTESIAN Z    -0.468079      0.685719  KCAL/ANGSTROM
     55         19  C    CARTESIAN X    -5.844517     -1.019455  KCAL/ANGSTROM
     56         19  C    CARTESIAN Y     0.774054     -0.882006  KCAL/ANGSTROM
     57         19  C    CARTESIAN Z    -0.002745      0.133132  KCAL/ANGSTROM
     58         20  C    CARTESIAN X    -4.946546     -0.035179  KCAL/ANGSTROM
     59         20  C    CARTESIAN Y     1.291740     -0.010555  KCAL/ANGSTROM
     60         20  C    CARTESIAN Z     0.930688      0.396592  KCAL/ANGSTROM
     61         21  C    CARTESIAN X    -3.887871     -0.047899  KCAL/ANGSTROM
     62         21  C    CARTESIAN Y     0.506578      0.059588  KCAL/ANGSTROM
     63         21  C    CARTESIAN Z     1.385726     -0.592359  KCAL/ANGSTROM
     64         22  O    CARTESIAN X    -2.777617      0.157506  KCAL/ANGSTROM
     65         22  O    CARTESIAN Y    -2.564600     -0.809216  KCAL/ANGSTROM
     66         22  O    CARTESIAN Z     2.081182      0.199040  KCAL/ANGSTROM
     67         23  O    CARTESIAN X     8.191620      0.012603  KCAL/ANGSTROM
     68         23  O    CARTESIAN Y     1.475693     -0.495461  KCAL/ANGSTROM
     69         23  O    CARTESIAN Z    -1.049585      0.020024  KCAL/ANGSTROM
     70         24  O    CARTESIAN X     8.325587      0.394286  KCAL/ANGSTROM
     71         24  O    CARTESIAN Y    -0.899620      0.317862  KCAL/ANGSTROM
     72         24  O    CARTESIAN Z    -0.281222      0.245183  KCAL/ANGSTROM
     73         25  O    CARTESIAN X    -7.052843     -0.318271  KCAL/ANGSTROM
     74         25  O    CARTESIAN Y     3.096936     -0.603513  KCAL/ANGSTROM
     75         25  O    CARTESIAN Z    -0.011070      0.466111  KCAL/ANGSTROM
     76         26  O    CARTESIAN X    -8.409282      0.074298  KCAL/ANGSTROM
     77         26  O    CARTESIAN Y     1.049679      0.607177  KCAL/ANGSTROM
     78         26  O    CARTESIAN Z    -0.498277      0.095117  KCAL/ANGSTROM
     79         27  S    CARTESIAN X    -0.912143     -0.324420  KCAL/ANGSTROM
     80         27  S    CARTESIAN Y    -0.005726      0.467360  KCAL/ANGSTROM
     81         27  S    CARTESIAN Z    -0.270371      0.316695  KCAL/ANGSTROM
     82         28  S    CARTESIAN X     7.658373     -0.512155  KCAL/ANGSTROM
     83         28  S    CARTESIAN Y     0.400568      0.387470  KCAL/ANGSTROM
     84         28  S    CARTESIAN Z    -0.215865      0.331854  KCAL/ANGSTROM
     85         29  S    CARTESIAN X    -7.142224      0.253221  KCAL/ANGSTROM
     86         29  S    CARTESIAN Y     1.768746      0.716749  KCAL/ANGSTROM
     87         29  S    CARTESIAN Z    -0.608179     -0.582323  KCAL/ANGSTROM
     88         30  H    CARTESIAN X     1.431433     -0.324087  KCAL/ANGSTROM
     89         30  H    CARTESIAN Y     0.981820      0.440220  KCAL/ANGSTROM
     90         30  H    CARTESIAN Z    -1.532229     -0.129864  KCAL/ANGSTROM
     91         31  H    CARTESIAN X     0.855439     -0.534987  KCAL/ANGSTROM
     92         31  H    CARTESIAN Y    -3.500798      0.249851  KCAL/ANGSTROM
     93         31  H    CARTESIAN Z     2.223938     -0.120080  KCAL/ANGSTROM
     94         32  H    CARTESIAN X    -0.864667      0.015834  KCAL/ANGSTROM
     95         32  H    CARTESIAN Y    -3.412859     -0.088524  KCAL/ANGSTROM
     96         32  H    CARTESIAN Z     2.440907      0.239947  KCAL/ANGSTROM
     97         33  H    CARTESIAN X     8.560844     -0.059739  KCAL/ANGSTROM
     98         33  H    CARTESIAN Y     0.571940      0.026475  KCAL/ANGSTROM
     99         33  H    CARTESIAN Z     1.946813      0.101138  KCAL/ANGSTROM
    100         34  H    CARTESIAN X     7.630399     -0.206016  KCAL/ANGSTROM
    101         34  H    CARTESIAN Y     1.891215      0.313457  KCAL/ANGSTROM
    102         34  H    CARTESIAN Z     1.599388     -0.210938  KCAL/ANGSTROM
    103         35  H    CARTESIAN X    -7.583720     -0.643966  KCAL/ANGSTROM
    104         35  H    CARTESIAN Y     1.694448     -0.481904  KCAL/ANGSTROM
    105         35  H    CARTESIAN Z    -2.912245      0.074834  KCAL/ANGSTROM
    106         36  H    CARTESIAN X    -6.384522      0.411330  KCAL/ANGSTROM
    107         36  H    CARTESIAN Y     2.787251      0.585126  KCAL/ANGSTROM
    108         36  H    CARTESIAN Z    -2.585161      0.227668  KCAL/ANGSTROM
    109         37  H    CARTESIAN X     3.420077      0.082439  KCAL/ANGSTROM
    110         37  H    CARTESIAN Y     1.818579      0.481771  KCAL/ANGSTROM
    111         37  H    CARTESIAN Z    -2.136150     -0.313719  KCAL/ANGSTROM
    112         38  H    CARTESIAN X     5.862966      0.290216  KCAL/ANGSTROM
    113         38  H    CARTESIAN Y     1.912107      0.191232  KCAL/ANGSTROM
    114         38  H    CARTESIAN Z    -1.901202     -0.161563  KCAL/ANGSTROM
    115         39  H    CARTESIAN X     5.717389     -0.220284  KCAL/ANGSTROM
    116         39  H    CARTESIAN Y    -1.499035     -0.357257  KCAL/ANGSTROM
    117         39  H    CARTESIAN Z     0.786984      0.310721  KCAL/ANGSTROM
    118         40  H    CARTESIAN X     3.295734      0.045959  KCAL/ANGSTROM
    119         40  H    CARTESIAN Y    -1.593873     -0.216584  KCAL/ANGSTROM
    120         40  H    CARTESIAN Z     0.551635      0.337187  KCAL/ANGSTROM
    121         41  H    CARTESIAN X    -4.524603     -0.248120  KCAL/ANGSTROM
    122         41  H    CARTESIAN Y    -2.341169     -0.361452  KCAL/ANGSTROM
    123         41  H    CARTESIAN Z    -0.384381      0.301203  KCAL/ANGSTROM
    124         42  H    CARTESIAN X    -6.407391      0.247564  KCAL/ANGSTROM
    125         42  H    CARTESIAN Y    -0.963669      0.281131  KCAL/ANGSTROM
    126         42  H    CARTESIAN Z    -1.189445     -0.121361  KCAL/ANGSTROM
    127         43  H    CARTESIAN X    -5.045172      0.555002  KCAL/ANGSTROM
    128         43  H    CARTESIAN Y     2.316051      0.124449  KCAL/ANGSTROM
    129         43  H    CARTESIAN Z     1.314111     -0.280725  KCAL/ANGSTROM
    130         44  H    CARTESIAN X    -3.194948     -0.011095  KCAL/ANGSTROM
    131         44  H    CARTESIAN Y     0.904794     -0.020284  KCAL/ANGSTROM
    132         44  H    CARTESIAN Z     2.130810      0.793332  KCAL/ANGSTROM




   ATOM   CHEMICAL          X               Y               Z
  NUMBER   SYMBOL      (ANGSTROMS)     (ANGSTROMS)     (ANGSTROMS)

     1       N          1.08820823  *  -1.50660512  *   0.61219793  *
     2       N          1.77091215  *   0.23481245  *  -0.89298067  *
     3       N         -0.02224970  *  -3.05166306  *   2.00037814  *
     4       N          7.74583518  *   0.89422519  *   1.42988149  *
     5       N         -6.80508846  *   1.90720376  *  -2.28994057  *
     6       C         -1.28584562  *  -1.29769623  *   0.83960956  *
     7       C         -0.09832248  *  -1.99243788  *   1.19089537  *
     8       C          0.85358253  *  -0.46533322  *  -0.18858768  *
     9       C          3.17881771  *   0.13920843  *  -0.76792949  *
    10       C         -2.57347597  *  -1.61897898  *   1.32277498  *
    11       C         -3.72862819  *  -0.78340007  *   0.88664753  *
    12       C          3.92290521  *   1.09921335  *  -1.48469984  *
    13       C          5.30120924  *   1.14659549  *  -1.34498654  *
    14       C          5.95609570  *   0.24438835  *  -0.50012112  *
    15       C          5.22493365  *  -0.75018640  *   0.14989316  *
    16       C          3.84040607  *  -0.80928103  *   0.02070340  *
    17       C         -4.63949325  *  -1.31725469  *  -0.02326262  *
    18       C         -5.70173317  *  -0.53360017  *  -0.46807928  *
    19       C         -5.84451729  *   0.77405385  *  -0.00274539  *
    20       C         -4.94654648  *   1.29174009  *   0.93068836  *
    21       C         -3.88787148  *   0.50657780  *   1.38572570  *
    22       O         -2.77761665  *  -2.56460047  *   2.08118207  *
    23       O          8.19162049  *   1.47569323  *  -1.04958541  *
    24       O          8.32558734  *  -0.89961981  *  -0.28122167  *
    25       O         -7.05284328  *   3.09693636  *  -0.01107034  *
    26       O         -8.40928161  *   1.04967912  *  -0.49827707  *
    27       S         -0.91214305  *  -0.00572643  *  -0.27037090  *
    28       S          7.65837326  *   0.40056770  *  -0.21586541  *
    29       S         -7.14222391  *   1.76874572  *  -0.60817856  *
    30       H          1.43143311  *   0.98181996  *  -1.53222886  *
    31       H          0.85543909  *  -3.50079789  *   2.22393828  *
    32       H         -0.86466655  *  -3.41285944  *   2.44090722  *
    33       H          8.56084395  *   0.57193982  *   1.94681260  *
    34       H          7.63039925  *   1.89121502  *   1.59938760  *
    35       H         -7.58371982  *   1.69444788  *  -2.91224451  *
    36       H         -6.38452249  *   2.78725057  *  -2.58516142  *
    37       H          3.42007659  *   1.81857899  *  -2.13614977  *
    38       H          5.86296649  *   1.91210749  *  -1.90120234  *
    39       H          5.71738884  *  -1.49903531  *   0.78698425  *
    40       H          3.29573446  *  -1.59387292  *   0.55163456  *
    41       H         -4.52460263  *  -2.34116916  *  -0.38438084  *
    42       H         -6.40739145  *  -0.96366898  *  -1.18944522  *
    43       H         -5.04517202  *   2.31605078  *   1.31411139  *
    44       H         -3.19494759  *   0.90479436  *   2.13081034  *

                             CARTESIAN COORDINATES

   1    N        1.088208231    -1.506605124     0.612197928
   2    N        1.770912152     0.234812449    -0.892980670
   3    N       -0.022249697    -3.051663062     2.000378140
   4    N        7.745835179     0.894225194     1.429881493
   5    N       -6.805088456     1.907203763    -2.289940574
   6    C       -1.285845623    -1.297696234     0.839609556
   7    C       -0.098322478    -1.992437875     1.190895368
   8    C        0.853582532    -0.465333217    -0.188587684
   9    C        3.178817711     0.139208432    -0.767929492
  10    C       -2.573475969    -1.618978979     1.322774975
  11    C       -3.728628192    -0.783400074     0.886647527
  12    C        3.922905213     1.099213348    -1.484699843
  13    C        5.301209238     1.146595494    -1.344986535
  14    C        5.956095695     0.244388348    -0.500121123
  15    C        5.224933646    -0.750186398     0.149893165
  16    C        3.840406071    -0.809281034     0.020703401
  17    C       -4.639493250    -1.317254693    -0.023262618
  18    C       -5.701733173    -0.533600166    -0.468079275
  19    C       -5.844517294     0.774053847    -0.002745390
  20    C       -4.946546483     1.291740091     0.930688362
  21    C       -3.887871480     0.506577804     1.385725703
  22    O       -2.777616645    -2.564600466     2.081182072
  23    O        8.191620486     1.475693227    -1.049585409
  24    O        8.325587341    -0.899619810    -0.281221670
  25    O       -7.052843280     3.096936361    -0.011070341
  26    O       -8.409281610     1.049679123    -0.498277069
  27    S       -0.912143049    -0.005726431    -0.270370898
  28    S        7.658373264     0.400567701    -0.215865408
  29    S       -7.142223910     1.768745718    -0.608178563
  30    H        1.431433112     0.981819956    -1.532228857
  31    H        0.855439094    -3.500797886     2.223938282
  32    H       -0.864666547    -3.412859440     2.440907224
  33    H        8.560843954     0.571939823     1.946812598
  34    H        7.630399247     1.891215024     1.599387596
  35    H       -7.583719820     1.694447880    -2.912244508
  36    H       -6.384522495     2.787250566    -2.585161422
  37    H        3.420076593     1.818578989    -2.136149772
  38    H        5.862966488     1.912107494    -1.901202337
  39    H        5.717388844    -1.499035308     0.786984250
  40    H        3.295734465    -1.593872923     0.551634557
  41    H       -4.524602634    -2.341169161    -0.384380839
  42    H       -6.407391446    -0.963668977    -1.189445219
  43    H       -5.045172021     2.316050784     1.314111392
  44    H       -3.194947588     0.904794357     2.130810337


           Empirical Formula: C16 H15 N5 O5 S3  =    44 atoms



      MOLECULAR POINT GROUP   :   C1  


                  EIGENVALUES  
 -38.36154 -37.78850 -35.84313 -35.81448 -35.80883 -31.48699 -31.03847 -30.68995
 -29.42656 -29.31159 -28.40382 -27.81177 -27.69642 -26.78137 -26.55675 -26.44765
 -26.15892 -24.72606 -23.68359 -22.55783 -22.20626 -21.68956 -21.40495 -20.46634
 -19.81918 -19.78497 -19.52277 -18.39673 -17.90065 -17.50343 -17.10625 -16.90703
 -16.69544 -16.51581 -16.44123 -16.23544 -16.11075 -15.99602 -15.91968 -15.70578
 -15.37500 -15.24864 -15.15548 -14.85064 -14.79005 -14.74116 -14.57403 -14.54653
 -14.40928 -14.02794 -13.88874 -13.70272 -13.66962 -13.13152 -12.86991 -12.78877
 -12.65576 -12.49932 -12.39968 -12.35765 -12.29011 -12.23413 -12.17290 -11.85836
 -11.82425 -11.32166 -11.08876 -10.87664 -10.80132 -10.73722 -10.70159 -10.56075
 -10.39625 -10.33322  -9.59730  -8.81365  -1.30367  -0.96717  -0.86829  -0.44676
  -0.35400  -0.25768  -0.21058   0.21072   0.22398   0.26848   0.63490   0.67281
   0.72887   0.80014   1.33076   1.35638   1.67913   1.79611   1.82662   2.16990
   2.33551   2.42063   2.59088   2.64335   2.74310   2.79994   2.91693   3.05594
   3.47711   3.60416   3.72424   3.83638   4.00229   4.06901   4.18189   4.21996
   4.25711   4.36367   4.38554   4.41735   4.43646   4.47137   4.50767   4.52196
   4.61723   4.63347   4.73075   4.75098   4.83046   5.22595   5.27418   5.30547
   5.39053   5.44105   5.51287   5.65205   5.67715   5.72921   5.79377   5.81956
   5.87453   5.90760   5.93063   5.98590   6.12860   6.20073   6.27517   6.69260
   6.70035   6.74040


              NET ATOMIC CHARGES AND DIPOLE CONTRIBUTIONS

  ATOM NO.   TYPE          CHARGE      No. of ELECS.   s-Pop       p-Pop       d-Pop       
    1          N          -0.630407        5.6304     1.77091     3.85949
    2          N          -0.432753        5.4328     1.52459     3.90816
    3          N          -0.473866        5.4739     1.50986     3.96401
    4          N          -0.929170        5.9292     1.66662     4.26255
    5          N          -0.935492        5.9355     1.66810     4.26739
    6          C          -0.639453        4.6395     1.05366     3.58580
    7          C           0.514815        3.4852     1.05378     2.43140
    8          C           0.382588        3.6174     1.10823     2.50918
    9          C           0.249462        3.7505     1.06592     2.68462
   10          C           0.559224        3.4408     1.08106     2.35971
   11          C          -0.082313        4.0823     1.08549     2.99682
   12          C          -0.267951        4.2680     1.08226     3.18569
   13          C          -0.001320        4.0013     1.09281     2.90851
   14          C          -0.449673        4.4497     1.09860     3.35108
   15          C           0.001896        3.9981     1.09351     2.90459
   16          C          -0.259904        4.2599     1.08312     3.17678
   17          C          -0.155094        4.1551     1.08483     3.07026
   18          C          -0.056637        4.0566     1.09102     2.96561
   19          C          -0.377682        4.3777     1.10614     3.27154
   20          C          -0.049783        4.0498     1.09262     2.95716
   21          C          -0.161556        4.1616     1.08512     3.07643
   22          O          -0.637779        6.6378     1.88061     4.75717
   23          O          -1.032301        7.0323     1.89309     5.13921
   24          O          -1.017878        7.0179     1.89365     5.12423
   25          O          -1.019689        7.0197     1.89249     5.12720
   26          O          -1.014820        7.0148     1.89332     5.12150
   27          S           0.131040        5.8690     1.89363     3.84343     0.13190
   28          S           2.465808        3.5342     1.16086     1.91340     0.45994
   29          S           2.456617        3.5434     1.16339     1.91588     0.46411
   30          H           0.377829        0.6222     0.62217
   31          H           0.351959        0.6480     0.64804
   32          H           0.356145        0.6439     0.64385
   33          H           0.320669        0.6793     0.67933
   34          H           0.321917        0.6781     0.67808
   35          H           0.322791        0.6772     0.67721
   36          H           0.322651        0.6773     0.67735
   37          H           0.187054        0.8129     0.81295
   38          H           0.188239        0.8118     0.81176
   39          H           0.186137        0.8139     0.81386
   40          H           0.201913        0.7981     0.79809
   41          H           0.176404        0.8236     0.82360
   42          H           0.185240        0.8148     0.81476
   43          H           0.187736        0.8123     0.81226
   44          H           0.177389        0.8226     0.82261
 DIPOLE           X         Y         Z       TOTAL
 POINT-CHG.     4.191     2.401    -2.409     5.397
 HYBRID        -0.379     0.277     0.403     0.619
 SUM            3.812     2.678    -2.006     5.072


          ATOMIC ORBITAL ELECTRON POPULATIONS

     Atom    s        px        py        pz      x^2-y^2     xz        z^2       yz        xy
    1  N   1.77091   1.30801   1.24773   1.30375
    2  N   1.52459   1.11075   1.38627   1.41114
    3  N   1.50986   1.25823   1.29328   1.41250
    4  N   1.66662   1.57494   1.36528   1.32233
    5  N   1.66810   1.49898   1.51443   1.25398
    6  C   1.05366   1.04369   1.21160   1.33051
    7  C   1.05378   0.84150   0.80091   0.78900
    8  C   1.10823   0.87256   0.82486   0.81176
    9  C   1.06592   0.78184   0.95936   0.94342
   10  C   1.08106   0.88485   0.76093   0.71393
   11  C   1.08549   1.00161   0.99878   0.99644
   12  C   1.08226   1.02024   1.07146   1.09399
   13  C   1.09281   0.99466   0.98059   0.93326
   14  C   1.09860   1.09783   1.10704   1.14621
   15  C   1.09351   0.98840   0.97498   0.94120
   16  C   1.08312   1.02242   1.07971   1.07465
   17  C   1.08483   0.98248   1.08372   1.00407
   18  C   1.09102   1.00944   0.96515   0.99103
   19  C   1.10614   1.10755   1.06209   1.10189
   20  C   1.09262   0.94410   1.07083   0.94223
   21  C   1.08512   1.04404   0.98414   1.04826
   22  O   1.88061   1.89346   1.40983   1.45388
   23  O   1.89309   1.81230   1.60903   1.71788
   24  O   1.89365   1.77772   1.49196   1.85454
   25  O   1.89249   1.85202   1.49277   1.78241
   26  O   1.89332   1.52717   1.74055   1.85378
   27  S   1.89363   0.93633   1.38144   1.52567   0.04004   0.01116   0.03861   0.02523   0.01686
   28  S   1.16086   0.69067   0.60511   0.61761   0.13199   0.03424   0.10182   0.10588   0.08600
   29  S   1.16339   0.64868   0.63199   0.63521   0.09668   0.05328   0.10183   0.07757   0.13475
   30  H   0.62217
   31  H   0.64804
   32  H   0.64385
   33  H   0.67933
   34  H   0.67808
   35  H   0.67721
   36  H   0.67735
   37  H   0.81295
   38  H   0.81176
   39  H   0.81386
   40  H   0.79809
   41  H   0.82360
   42  H   0.81476
   43  H   0.81226
   44  H   0.82261

 **********************
 *                    *
 * JOB ENDED NORMALLY *
 *                    *
 **********************



 TOTAL JOB TIME:             7.67 SECONDS

 == MOPAC DONE ==
