 *******************************************************************************
 **                                                                           **
 **                              MOPAC v23.2.2                                **
 **                                                                           **
 *******************************************************************************
 **          Digital Object Identifier (DOI): 10.5281/zenodo.6511958          **
 **    Visit the DOI location for information on how to cite this program.    **
 *******************************************************************************

                              PM7 CALCULATION RESULTS

 *******************************************************************************
 *  CALCULATION DONE: (MAX THREADS = 24)             Wed Mar 18 14:16:05 2026  *
 *  PM7        - The PM7 Hamiltonian to be used
 *
 *
 *
 *                 CHARGE ON SYSTEM = 0
 *
 *
 *
 *  EPS=78.4   - USE ANDREAS KLAMT'S COSMO IMPLICIT SOLVATION MODEL
 *  T=         - A TIME OF 172800.0 SECONDS REQUESTED
 *  DUMP=N     - RESTART FILE WRITTEN EVERY 7200.0 SECONDS REQUESTED
 *******************************************************************************
PM7 CHARGE=0 EPS=78.4


   ATOM   CHEMICAL          X               Y               Z
  NUMBER   SYMBOL      (ANGSTROMS)     (ANGSTROMS)     (ANGSTROMS)

     1       N          0.98030000  *   1.62120000  *   0.22870000  *
     2       N          1.85900000  *  -0.60930000  *   0.21800000  *
     3       N         -0.28940000  *   3.55250000  *   0.34750000  *
     4       N          8.35320000  *   0.36520000  *   0.37570000  *
     5       N         -6.75830000  *  -3.40300000  *  -0.02850000  *
     6       C         -1.30580000  *   1.37680000  *   0.62950000  *
     7       C         -0.23620000  *   2.21360000  *   0.40790000  *
     8       C          0.87510000  *   0.31530000  *   0.32790000  *
     9       C          3.21710000  *  -0.43630000  *  -0.10830000  *
    10       C         -2.68340000  *   1.73450000  *   0.89030000  *
    11       C         -3.78990000  *   0.81360000  *   0.51390000  *
    12       C          3.78840000  *   0.79010000  *  -0.47280000  *
    13       C          5.15240000  *   0.89910000  *  -0.76990000  *
    14       C          5.96880000  *  -0.22780000  *  -0.68940000  *
    15       C          5.42920000  *  -1.46300000  *  -0.33590000  *
    16       C          4.06460000  *  -1.55850000  *  -0.04320000  *
    17       C         -4.84670000  *   0.62990000  *   1.41690000  *
    18       C         -5.91070000  *  -0.21270000  *   1.08790000  *
    19       C         -5.91570000  *  -0.86490000  *  -0.14890000  *
    20       C         -4.88300000  *  -0.65970000  *  -1.07000000  *
    21       C         -3.81930000  *   0.18360000  *  -0.73870000  *
    22       O         -3.00980000  *   2.79830000  *   1.41920000  *
    23       O          8.21020000  *  -1.41470000  *  -1.36760000  *
    24       O          7.88080000  *   1.01690000  *  -1.98990000  *
    25       O         -7.35200000  *  -2.01790000  *  -2.02060000  *
    26       O         -8.42170000  *  -1.55710000  *   0.22900000  *
    27       S         -0.73320000  *  -0.23780000  *   0.66040000  *
    28       S          7.68450000  *  -0.09750000  *  -1.09280000  *
    29       S         -7.28030000  *  -1.90670000  *  -0.58290000  *
    30       H          1.58680000  *  -1.57320000  *   0.35990000  *
    31       H          0.58920000  *   4.05100000  *   0.44440000  *
    32       H         -1.07160000  *   4.03360000  *   0.79090000  *
    33       H          9.00220000  *  -0.35090000  *   0.70190000  *
    34       H          8.77010000  *   1.29240000  *   0.28890000  *
    35       H         -7.38590000  *  -3.73560000  *   0.70460000  *
    36       H         -6.67130000  *  -4.04920000  *  -0.81390000  *
    37       H          3.18350000  *   1.68970000  *  -0.54600000  *
    38       H          5.56030000  *   1.86440000  *  -1.06130000  *
    39       H          6.05530000  *  -2.35070000  *  -0.28370000  *
    40       H          3.66660000  *  -2.53060000  *   0.23960000  *
    41       H         -4.84510000  *   1.14780000  *   2.37480000  *
    42       H         -6.72910000  *  -0.34760000  *   1.79240000  *
    43       H         -4.90530000  *  -1.14190000  *  -2.04550000  *
    44       H         -3.03400000  *   0.35730000  *  -1.47150000  *



          CARTESIAN COORDINATES 

    NO.       ATOM           X           Y           Z

     1         N          0.9803      1.6212      0.2287
     2         N          1.8590     -0.6093      0.2180
     3         N         -0.2894      3.5525      0.3475
     4         N          8.3532      0.3652      0.3757
     5         N         -6.7583     -3.4030     -0.0285
     6         C         -1.3058      1.3768      0.6295
     7         C         -0.2362      2.2136      0.4079
     8         C          0.8751      0.3153      0.3279
     9         C          3.2171     -0.4363     -0.1083
    10         C         -2.6834      1.7345      0.8903
    11         C         -3.7899      0.8136      0.5139
    12         C          3.7884      0.7901     -0.4728
    13         C          5.1524      0.8991     -0.7699
    14         C          5.9688     -0.2278     -0.6894
    15         C          5.4292     -1.4630     -0.3359
    16         C          4.0646     -1.5585     -0.0432
    17         C         -4.8467      0.6299      1.4169
    18         C         -5.9107     -0.2127      1.0879
    19         C         -5.9157     -0.8649     -0.1489
    20         C         -4.8830     -0.6597     -1.0700
    21         C         -3.8193      0.1836     -0.7387
    22         O         -3.0098      2.7983      1.4192
    23         O          8.2102     -1.4147     -1.3676
    24         O          7.8808      1.0169     -1.9899
    25         O         -7.3520     -2.0179     -2.0206
    26         O         -8.4217     -1.5571      0.2290
    27         S         -0.7332     -0.2378      0.6604
    28         S          7.6845     -0.0975     -1.0928
    29         S         -7.2803     -1.9067     -0.5829
    30         H          1.5868     -1.5732      0.3599
    31         H          0.5892      4.0510      0.4444
    32         H         -1.0716      4.0336      0.7909
    33         H          9.0022     -0.3509      0.7019
    34         H          8.7701      1.2924      0.2889
    35         H         -7.3859     -3.7356      0.7046
    36         H         -6.6713     -4.0492     -0.8139
    37         H          3.1835      1.6897     -0.5460
    38         H          5.5603      1.8644     -1.0613
    39         H          6.0553     -2.3507     -0.2837
    40         H          3.6666     -2.5306      0.2396
    41         H         -4.8451      1.1478      2.3748
    42         H         -6.7291     -0.3476      1.7924
    43         H         -4.9053     -1.1419     -2.0455
    44         H         -3.0340      0.3573     -1.4715

 General Reference for PM7:
 "Optimization of Parameters for Semiempirical Methods VI: More Modifications to the 
 NDDO Approximations and Re-optimization of Parameters", J. J. P. Stewart, J. Mol. Mod., 1:32, 19 (2013)
 https://link.springer.com/article/10.1007/s00894-012-1667-x

           Empirical Formula: C16 H15 N5 O5 S3  =    44 atoms



      MOLECULAR POINT GROUP   :   C1  


      RHF CALCULATION, NO. OF DOUBLY OCCUPIED LEVELS = 76


          Geometry optimization using L-BFGS
 CYCLE:     1 TIME:   0.098 TIME LEFT:  2.00D  GRAD.:   164.003 HEAT: -141.8804
 CYCLE:     2 TIME:   0.035 TIME LEFT:  2.00D  GRAD.:   161.298 HEAT: -142.1465
 CYCLE:     3 TIME:   0.039 TIME LEFT:  2.00D  GRAD.:    51.384 HEAT: -152.6883
 CYCLE:     4 TIME:   0.039 TIME LEFT:  2.00D  GRAD.:   161.516 HEAT: -142.1466
 CYCLE:     5 TIME:   0.043 TIME LEFT:  2.00D  GRAD.:    51.463 HEAT: -152.6875
 CYCLE:     6 TIME:   0.035 TIME LEFT:  2.00D  GRAD.:    46.624 HEAT: -154.0693
 CYCLE:     7 TIME:   0.035 TIME LEFT:  2.00D  GRAD.:    37.717 HEAT: -155.5214
 CYCLE:     8 TIME:   0.035 TIME LEFT:  2.00D  GRAD.:    71.765 HEAT: -156.6667
 CYCLE:     9 TIME:   0.039 TIME LEFT:  2.00D  GRAD.:    25.444 HEAT: -157.3972
 CYCLE:    10 TIME:   0.031 TIME LEFT:  2.00D  GRAD.:    17.774 HEAT: -157.6711
 CYCLE:    11 TIME:   0.035 TIME LEFT:  2.00D  GRAD.:    13.998 HEAT: -158.0118
 CYCLE:    12 TIME:   0.039 TIME LEFT:  2.00D  GRAD.:    22.956 HEAT: -158.3517
 CYCLE:    13 TIME:   0.035 TIME LEFT:  2.00D  GRAD.:    15.082 HEAT: -158.6325
 CYCLE:    14 TIME:   0.031 TIME LEFT:  2.00D  GRAD.:    10.232 HEAT: -158.7625
 CYCLE:    15 TIME:   0.039 TIME LEFT:  2.00D  GRAD.:    11.508 HEAT: -158.8504
 CYCLE:    16 TIME:   0.035 TIME LEFT:  2.00D  GRAD.:    15.107 HEAT: -158.8670
 CYCLE:    17 TIME:   0.035 TIME LEFT:  2.00D  GRAD.:    10.478 HEAT: -159.0479
 CYCLE:    18 TIME:   0.035 TIME LEFT:  2.00D  GRAD.:    10.945 HEAT: -159.2271
 CYCLE:    19 TIME:   0.039 TIME LEFT:  2.00D  GRAD.:    10.275 HEAT: -159.3652
 CYCLE:    20 TIME:   0.031 TIME LEFT:  2.00D  GRAD.:     8.442 HEAT: -159.7776
 CYCLE:    21 TIME:   0.035 TIME LEFT:  2.00D  GRAD.:     9.243 HEAT: -159.5555
 CYCLE:    22 TIME:   0.035 TIME LEFT:  2.00D  GRAD.:    11.064 HEAT: -159.7940
 CYCLE:    23 TIME:   0.035 TIME LEFT:  2.00D  GRAD.:     6.725 HEAT: -159.6220
 CYCLE:    24 TIME:   0.031 TIME LEFT:  2.00D  GRAD.:     6.175 HEAT: -159.6783
 CYCLE:    25 TIME:   0.039 TIME LEFT:  2.00D  GRAD.:     8.646 HEAT: -159.7625
 CYCLE:    26 TIME:   0.031 TIME LEFT:  2.00D  GRAD.:    16.822 HEAT: -159.7943
 CYCLE:    27 TIME:   0.035 TIME LEFT:  2.00D  GRAD.:     8.152 HEAT: -159.8658
 CYCLE:    28 TIME:   0.035 TIME LEFT:  2.00D  GRAD.:     5.760 HEAT: -159.9721
 CYCLE:    29 TIME:   0.031 TIME LEFT:  2.00D  GRAD.:     6.445 HEAT: -160.0018
 CYCLE:    30 TIME:   0.039 TIME LEFT:  2.00D  GRAD.:    10.899 HEAT: -160.0475
 CYCLE:    31 TIME:   0.031 TIME LEFT:  2.00D  GRAD.:     5.777 HEAT: -160.0844
 CYCLE:    32 TIME:   0.035 TIME LEFT:  2.00D  GRAD.:     5.985 HEAT: -160.1041
 CYCLE:    33 TIME:   0.031 TIME LEFT:  2.00D  GRAD.:     6.821 HEAT: -160.0978
 CYCLE:    34 TIME:   0.035 TIME LEFT:  2.00D  GRAD.:     7.564 HEAT: -160.0450
 CYCLE:    35 TIME:   0.035 TIME LEFT:  2.00D  GRAD.:    10.025 HEAT: -160.0388
 CYCLE:    36 TIME:   0.035 TIME LEFT:  2.00D  GRAD.:     4.714 HEAT: -160.0741
 CYCLE:    37 TIME:   0.031 TIME LEFT:  2.00D  GRAD.:     5.469 HEAT: -160.1279
 CYCLE:    38 TIME:   0.035 TIME LEFT:  2.00D  GRAD.:     7.517 HEAT: -160.1665
 CYCLE:    39 TIME:   0.035 TIME LEFT:  2.00D  GRAD.:     9.721 HEAT: -160.2532
 CYCLE:    40 TIME:   0.039 TIME LEFT:  2.00D  GRAD.:     9.987 HEAT: -160.3904
 CYCLE:    41 TIME:   0.035 TIME LEFT:  2.00D  GRAD.:     8.174 HEAT: -160.4117
 CYCLE:    42 TIME:   0.035 TIME LEFT:  2.00D  GRAD.:    11.151 HEAT: -160.4660
 CYCLE:    43 TIME:   0.035 TIME LEFT:  2.00D  GRAD.:     6.040 HEAT: -160.4905
 CYCLE:    44 TIME:   0.035 TIME LEFT:  2.00D  GRAD.:     4.394 HEAT: -160.5055
 CYCLE:    45 TIME:   0.035 TIME LEFT:  2.00D  GRAD.:     5.015 HEAT: -160.5335
 CYCLE:    46 TIME:   0.035 TIME LEFT:  2.00D  GRAD.:     7.721 HEAT: -160.6290
 CYCLE:    47 TIME:   0.035 TIME LEFT:  2.00D  GRAD.:    17.713 HEAT: -160.5880
 CYCLE:    48 TIME:   0.039 TIME LEFT:  2.00D  GRAD.:     9.338 HEAT: -160.5972
 CYCLE:    49 TIME:   0.031 TIME LEFT:  2.00D  GRAD.:     4.478 HEAT: -160.6595
 CYCLE:    50 TIME:   0.039 TIME LEFT:  2.00D  GRAD.:     6.536 HEAT: -160.6979
 CYCLE:    51 TIME:   0.035 TIME LEFT:  2.00D  GRAD.:     8.614 HEAT: -160.7563
 CYCLE:    52 TIME:   0.035 TIME LEFT:  2.00D  GRAD.:    20.468 HEAT: -160.7218
 CYCLE:    53 TIME:   0.035 TIME LEFT:  2.00D  GRAD.:     5.666 HEAT: -160.7532
 CYCLE:    54 TIME:   0.031 TIME LEFT:  2.00D  GRAD.:     3.625 HEAT: -160.7733
 CYCLE:    55 TIME:   0.035 TIME LEFT:  2.00D  GRAD.:     4.676 HEAT: -160.7848
 CYCLE:    56 TIME:   0.035 TIME LEFT:  2.00D  GRAD.:     5.839 HEAT: -160.7968
 CYCLE:    57 TIME:   0.039 TIME LEFT:  2.00D  GRAD.:    13.500 HEAT: -160.8612
 CYCLE:    58 TIME:   0.031 TIME LEFT:  2.00D  GRAD.:     3.632 HEAT: -160.8927
 CYCLE:    59 TIME:   0.035 TIME LEFT:  2.00D  GRAD.:     2.748 HEAT: -160.8770
 CYCLE:    60 TIME:   0.039 TIME LEFT:  2.00D  GRAD.:     4.139 HEAT: -160.8324
 CYCLE:    61 TIME:   0.035 TIME LEFT:  2.00D  GRAD.:     6.193 HEAT: -160.8670
 CYCLE:    62 TIME:   0.035 TIME LEFT:  2.00D  GRAD.:     4.342 HEAT: -161.1108
 CYCLE:    63 TIME:   0.035 TIME LEFT:  2.00D  GRAD.:     7.586 HEAT: -161.0486
 CYCLE:    64 TIME:   0.035 TIME LEFT:  2.00D  GRAD.:     4.030 HEAT: -161.1085
 CYCLE:    65 TIME:   0.035 TIME LEFT:  2.00D  GRAD.:     3.660 HEAT: -161.1017
 CYCLE:    66 TIME:   0.035 TIME LEFT:  2.00D  GRAD.:     7.033 HEAT: -161.0850
 CYCLE:    67 TIME:   0.039 TIME LEFT:  2.00D  GRAD.:     4.604 HEAT: -161.2138
 CYCLE:    68 TIME:   0.031 TIME LEFT:  2.00D  GRAD.:     3.728 HEAT: -161.2294
 CYCLE:    69 TIME:   0.039 TIME LEFT:  2.00D  GRAD.:     4.003 HEAT: -161.2797
 CYCLE:    70 TIME:   0.035 TIME LEFT:  2.00D  GRAD.:     6.382 HEAT: -161.2711
 CYCLE:    71 TIME:   0.035 TIME LEFT:  2.00D  GRAD.:     3.900 HEAT: -161.2793
 CYCLE:    72 TIME:   0.035 TIME LEFT:  2.00D  GRAD.:     2.571 HEAT: -161.2579
 CYCLE:    73 TIME:   0.035 TIME LEFT:  2.00D  GRAD.:     2.740 HEAT: -161.3246
 CYCLE:    74 TIME:   0.035 TIME LEFT:  2.00D  GRAD.:     3.630 HEAT: -161.4097
 CYCLE:    75 TIME:   0.035 TIME LEFT:  2.00D  GRAD.:     4.940 HEAT: -161.3685
 CYCLE:    76 TIME:   0.031 TIME LEFT:  2.00D  GRAD.:     3.119 HEAT: -161.3935
 CYCLE:    77 TIME:   0.035 TIME LEFT:  2.00D  GRAD.:     3.298 HEAT: -161.1542
 CYCLE:    78 TIME:   0.035 TIME LEFT:  2.00D  GRAD.:     4.021 HEAT: -161.0822
 CYCLE:    79 TIME:   0.031 TIME LEFT:  2.00D  GRAD.:     4.393 HEAT: -161.0955
 CYCLE:    80 TIME:   0.035 TIME LEFT:  2.00D  GRAD.:     3.057 HEAT: -161.1141
 CYCLE:    81 TIME:   0.035 TIME LEFT:  2.00D  GRAD.:     3.539 HEAT: -161.1290
 CYCLE:    82 TIME:   0.035 TIME LEFT:  2.00D  GRAD.:     4.324 HEAT: -161.0925
 CYCLE:    83 TIME:   0.035 TIME LEFT:  2.00D  GRAD.:     3.077 HEAT: -161.1479
 CYCLE:    84 TIME:   0.035 TIME LEFT:  2.00D  GRAD.:     3.708 HEAT: -161.1189
 CYCLE:    85 TIME:   0.035 TIME LEFT:  2.00D  GRAD.:     5.693 HEAT: -161.1335
 CYCLE:    86 TIME:   0.031 TIME LEFT:  2.00D  GRAD.:     2.929 HEAT: -161.1477
 CYCLE:    87 TIME:   0.035 TIME LEFT:  2.00D  GRAD.:     2.728 HEAT: -161.1146
 CYCLE:    88 TIME:   0.035 TIME LEFT:  2.00D  GRAD.:     3.732 HEAT: -161.1817
 CYCLE:    89 TIME:   0.039 TIME LEFT:  2.00D  GRAD.:     7.306 HEAT: -161.0852
 CYCLE:    90 TIME:   0.035 TIME LEFT:  2.00D  GRAD.:     3.102 HEAT: -161.1003
 CYCLE:    91 TIME:   0.035 TIME LEFT:  2.00D  GRAD.:     2.727 HEAT: -161.1042
 CYCLE:    92 TIME:   0.031 TIME LEFT:  2.00D  GRAD.:     3.485 HEAT: -161.1705
 CYCLE:    93 TIME:   0.039 TIME LEFT:  2.00D  GRAD.:     4.814 HEAT: -161.1531
 CYCLE:    94 TIME:   0.031 TIME LEFT:  2.00D  GRAD.:     4.930 HEAT: -161.1526
 CYCLE:    95 TIME:   0.035 TIME LEFT:  2.00D  GRAD.:     2.412 HEAT: -161.1770
 CYCLE:    96 TIME:   0.035 TIME LEFT:  2.00D  GRAD.:     2.833 HEAT: -161.1719
 CYCLE:    97 TIME:   0.031 TIME LEFT:  2.00D  GRAD.:     3.456 HEAT: -161.3397
 CYCLE:    98 TIME:   0.039 TIME LEFT:  2.00D  GRAD.:     6.764 HEAT: -161.3766
 CYCLE:    99 TIME:   0.035 TIME LEFT:  2.00D  GRAD.:     4.610 HEAT: -161.3892
 CYCLE:   100 TIME:   0.031 TIME LEFT:  2.00D  GRAD.:     2.925 HEAT: -161.3424
 CYCLE:   101 TIME:   0.035 TIME LEFT:  2.00D  GRAD.:     2.550 HEAT: -161.3449
 CYCLE:   102 TIME:   0.035 TIME LEFT:  2.00D  GRAD.:     3.464 HEAT: -161.3211
 CYCLE:   103 TIME:   0.039 TIME LEFT:  2.00D  GRAD.:     2.800 HEAT: -161.3519
 CYCLE:   104 TIME:   0.035 TIME LEFT:  2.00D  GRAD.:     4.082 HEAT: -161.3519


           HEAT OF FORMATION IS ESSENTIALLY STATIONARY


          CURRENT BEST VALUE OF HEAT OF FORMATION =   -161.411279

 PM7 CHARGE=0 EPS=78.4


  N     1.05518401 +1   1.46233625 +1   0.49079703 +1
  N     1.83500539 +1  -0.78539521 +1   0.20083388 +1
  N    -0.13715361 +1   3.47937153 +1   0.73113624 +1
  N     8.28888286 +1   0.46004849 +1   0.46228888 +1
  N    -6.69333806 +1  -3.43344599 +1   0.10216064 +1
  C    -1.33077955 +1   1.34114777 +1   0.53638175 +1
  C    -0.16643589 +1   2.15178098 +1   0.59527093 +1
  C     0.87021178 +1   0.14618222 +1   0.37157662 +1
  C     3.19760208 +1  -0.52292772 +1  -0.08417491 +1
  C    -2.65057346 +1   1.84406991 +1   0.51043116 +1
  C    -3.77741257 +1   0.89682103 +1   0.27797241 +1
  C     3.68538925 +1   0.73952308 +1  -0.43976828 +1
  C     5.03499227 +1   0.89624975 +1  -0.73859088 +1
  C     5.90303493 +1  -0.19350535 +1  -0.68965181 +1
  C     5.41170664 +1  -1.45728315 +1  -0.34798330 +1
  C     4.06868514 +1  -1.62886488 +1  -0.04357240 +1
  C    -4.68674019 +1   0.65159266 +1   1.30337506 +1
  C    -5.75435776 +1  -0.21625663 +1   1.07989509 +1
  C    -5.90207455 +1  -0.83097640 +1  -0.16378077 +1
  C    -4.99045631 +1  -0.57868745 +1  -1.18854216 +1
  C    -3.92539875 +1   0.29365691 +1  -0.96970431 +1
  O    -2.90305140 +1   3.03690281 +1   0.65986697 +1
  O     8.16744716 +1  -1.25457594 +1  -1.44874918 +1
  O     7.75381740 +1   1.17620254 +1  -1.93367128 +1
  O    -7.50968371 +1  -1.99621709 +1  -1.86973442 +1
  O    -8.34959286 +1  -1.51624779 +1   0.45114817 +1
  S    -0.88601818 +1  -0.34232026 +1   0.43164098 +1
  S     7.58672884 +1   0.02459407 +1  -1.04845151 +1
  S    -7.25345317 +1  -1.89779763 +1  -0.43602647 +1
  H     1.57719356 +1  -1.78590444 +1   0.28515027 +1
  H     0.72917436 +1   4.00246908 +1   0.73419217 +1
  H    -1.00778749 +1   4.00013002 +1   0.79207936 +1
  H     8.87317391 +1  -0.25057647 +1   0.89706938 +1
  H     8.80064415 +1   1.34080722 +1   0.47065344 +1
  H    -7.27941716 +1  -3.89418578 +1   0.79643360 +1
  H    -6.48229964 +1  -4.10735971 +1  -0.63194663 +1
  H     3.03019466 +1   1.61201954 +1  -0.49376768 +1
  H     5.39172123 +1   1.89891918 +1  -1.01536975 +1
  H     6.07521854 +1  -2.33287637 +1  -0.31620673 +1
  H     3.69587922 +1  -2.61859952 +1   0.22827239 +1
  H    -4.56888473 +1   1.13539973 +1   2.27484930 +1
  H    -6.46849974 +1  -0.39616880 +1   1.89445120 +1
  H    -5.08930667 +1  -1.05213609 +1  -2.17359439 +1
  H    -3.21931390 +1   0.50235207 +1  -1.77577616 +1



 -------------------------------------------------------------------------------
 PM7 CHARGE=0 EPS=78.4




     HERBERTS TEST WAS SATISFIED IN BFGS                      
     SCF FIELD WAS ACHIEVED                                   


                              PM7 CALCULATION
                                                       MOPAC v23.2.2 Linux
                                                       Wed Mar 18 14:16:08 2026




          FINAL HEAT OF FORMATION =       -161.41128 KCAL/MOL =    -675.34479 KJ/MOL
          VAN DER WAALS AREA      =        413.08 SQUARE ANGSTROMS



          DIELECTRIC ENERGY       =         -2.63725 EV
          COSMO AREA              =        413.08 SQUARE ANGSTROMS
          COSMO VOLUME            =        461.55 CUBIC ANGSTROMS

          GRADIENT NORM           =          3.63012          =       0.54726 PER ATOM
          IONIZATION POTENTIAL    =          8.842250 EV
          HOMO LUMO ENERGIES (EV) =         -8.842 -1.305
          NO. OF FILLED LEVELS    =         76
          MOLECULAR WEIGHT        =        453.5050         POINT GROUP:  C1  

          MOLECULAR DIMENSIONS (Angstroms)

            Atom       Atom       Distance
            H    34    O    26    17.38660
            H    39    H    32     7.49424
            H    41    H    43     4.08966


          SCF CALCULATIONS        =        107

          WALL-CLOCK TIME         =      3.785 SECONDS
          COMPUTATION TIME        =          1 MINUTE AND 30.755 SECONDS



       FINAL  POINT  AND  DERIVATIVES

   PARAMETER     ATOM    TYPE            VALUE        GRADIENT
      1          1  N    CARTESIAN X     1.055184      0.132857  KCAL/ANGSTROM
      2          1  N    CARTESIAN Y     1.462336      0.312724  KCAL/ANGSTROM
      3          1  N    CARTESIAN Z     0.490797     -0.415487  KCAL/ANGSTROM
      4          2  N    CARTESIAN X     1.835005      0.150498  KCAL/ANGSTROM
      5          2  N    CARTESIAN Y    -0.785395     -0.076076  KCAL/ANGSTROM
      6          2  N    CARTESIAN Z     0.200834      0.409505  KCAL/ANGSTROM
      7          3  N    CARTESIAN X    -0.137154     -0.453860  KCAL/ANGSTROM
      8          3  N    CARTESIAN Y     3.479372      0.167122  KCAL/ANGSTROM
      9          3  N    CARTESIAN Z     0.731136      0.293413  KCAL/ANGSTROM
     10          4  N    CARTESIAN X     8.288883     -0.093520  KCAL/ANGSTROM
     11          4  N    CARTESIAN Y     0.460048      0.071088  KCAL/ANGSTROM
     12          4  N    CARTESIAN Z     0.462289      0.085512  KCAL/ANGSTROM
     13          5  N    CARTESIAN X    -6.693338     -0.174237  KCAL/ANGSTROM
     14          5  N    CARTESIAN Y    -3.433446     -0.042782  KCAL/ANGSTROM
     15          5  N    CARTESIAN Z     0.102161      0.171804  KCAL/ANGSTROM
     16          6  C    CARTESIAN X    -1.330780      0.016919  KCAL/ANGSTROM
     17          6  C    CARTESIAN Y     1.341148     -0.179688  KCAL/ANGSTROM
     18          6  C    CARTESIAN Z     0.536382      0.213242  KCAL/ANGSTROM
     19          7  C    CARTESIAN X    -0.166436      0.262880  KCAL/ANGSTROM
     20          7  C    CARTESIAN Y     2.151781      1.076759  KCAL/ANGSTROM
     21          7  C    CARTESIAN Z     0.595271     -0.004509  KCAL/ANGSTROM
     22          8  C    CARTESIAN X     0.870212     -0.232363  KCAL/ANGSTROM
     23          8  C    CARTESIAN Y     0.146182     -0.082418  KCAL/ANGSTROM
     24          8  C    CARTESIAN Z     0.371577      0.269635  KCAL/ANGSTROM
     25          9  C    CARTESIAN X     3.197602     -0.205644  KCAL/ANGSTROM
     26          9  C    CARTESIAN Y    -0.522928     -0.739102  KCAL/ANGSTROM
     27          9  C    CARTESIAN Z    -0.084175      0.073847  KCAL/ANGSTROM
     28         10  C    CARTESIAN X    -2.650573     -0.495657  KCAL/ANGSTROM
     29         10  C    CARTESIAN Y     1.844070      1.023938  KCAL/ANGSTROM
     30         10  C    CARTESIAN Z     0.510431      0.009466  KCAL/ANGSTROM
     31         11  C    CARTESIAN X    -3.777413      0.456663  KCAL/ANGSTROM
     32         11  C    CARTESIAN Y     0.896821     -0.023661  KCAL/ANGSTROM
     33         11  C    CARTESIAN Z     0.277972      0.538360  KCAL/ANGSTROM
     34         12  C    CARTESIAN X     3.685389     -0.351297  KCAL/ANGSTROM
     35         12  C    CARTESIAN Y     0.739523     -0.027912  KCAL/ANGSTROM
     36         12  C    CARTESIAN Z    -0.439768     -0.115388  KCAL/ANGSTROM
     37         13  C    CARTESIAN X     5.034992      0.135825  KCAL/ANGSTROM
     38         13  C    CARTESIAN Y     0.896250     -0.633402  KCAL/ANGSTROM
     39         13  C    CARTESIAN Z    -0.738591      0.089717  KCAL/ANGSTROM
     40         14  C    CARTESIAN X     5.903035     -0.215799  KCAL/ANGSTROM
     41         14  C    CARTESIAN Y    -0.193505      0.818906  KCAL/ANGSTROM
     42         14  C    CARTESIAN Z    -0.689652     -0.129954  KCAL/ANGSTROM
     43         15  C    CARTESIAN X     5.411707      0.298978  KCAL/ANGSTROM
     44         15  C    CARTESIAN Y    -1.457283     -0.143108  KCAL/ANGSTROM
     45         15  C    CARTESIAN Z    -0.347983     -0.085644  KCAL/ANGSTROM
     46         16  C    CARTESIAN X     4.068685     -0.524939  KCAL/ANGSTROM
     47         16  C    CARTESIAN Y    -1.628865     -0.030738  KCAL/ANGSTROM
     48         16  C    CARTESIAN Z    -0.043572     -0.169092  KCAL/ANGSTROM
     49         17  C    CARTESIAN X    -4.686740      0.297631  KCAL/ANGSTROM
     50         17  C    CARTESIAN Y     0.651593      0.288154  KCAL/ANGSTROM
     51         17  C    CARTESIAN Z     1.303375     -0.378298  KCAL/ANGSTROM
     52         18  C    CARTESIAN X    -5.754358     -0.250018  KCAL/ANGSTROM
     53         18  C    CARTESIAN Y    -0.216257      0.132660  KCAL/ANGSTROM
     54         18  C    CARTESIAN Z     1.079895     -0.071115  KCAL/ANGSTROM
     55         19  C    CARTESIAN X    -5.902075      0.477860  KCAL/ANGSTROM
     56         19  C    CARTESIAN Y    -0.830976     -0.499141  KCAL/ANGSTROM
     57         19  C    CARTESIAN Z    -0.163781     -0.391288  KCAL/ANGSTROM
     58         20  C    CARTESIAN X    -4.990456     -0.216256  KCAL/ANGSTROM
     59         20  C    CARTESIAN Y    -0.578687     -0.085151  KCAL/ANGSTROM
     60         20  C    CARTESIAN Z    -1.188542     -0.103981  KCAL/ANGSTROM
     61         21  C    CARTESIAN X    -3.925399      0.141514  KCAL/ANGSTROM
     62         21  C    CARTESIAN Y     0.293657      0.104122  KCAL/ANGSTROM
     63         21  C    CARTESIAN Z    -0.969704     -0.246074  KCAL/ANGSTROM
     64         22  O    CARTESIAN X    -2.903051      0.625245  KCAL/ANGSTROM
     65         22  O    CARTESIAN Y     3.036903     -0.806759  KCAL/ANGSTROM
     66         22  O    CARTESIAN Z     0.659867      0.091150  KCAL/ANGSTROM
     67         23  O    CARTESIAN X     8.167447     -0.301190  KCAL/ANGSTROM
     68         23  O    CARTESIAN Y    -1.254576      0.097874  KCAL/ANGSTROM
     69         23  O    CARTESIAN Z    -1.448749     -0.076117  KCAL/ANGSTROM
     70         24  O    CARTESIAN X     7.753817     -0.307855  KCAL/ANGSTROM
     71         24  O    CARTESIAN Y     1.176203      0.439744  KCAL/ANGSTROM
     72         24  O    CARTESIAN Z    -1.933671     -0.152664  KCAL/ANGSTROM
     73         25  O    CARTESIAN X    -7.509684     -0.451287  KCAL/ANGSTROM
     74         25  O    CARTESIAN Y    -1.996217      0.135981  KCAL/ANGSTROM
     75         25  O    CARTESIAN Z    -1.869734     -0.313553  KCAL/ANGSTROM
     76         26  O    CARTESIAN X    -8.349593     -0.493290  KCAL/ANGSTROM
     77         26  O    CARTESIAN Y    -1.516248      0.481146  KCAL/ANGSTROM
     78         26  O    CARTESIAN Z     0.451148      0.430171  KCAL/ANGSTROM
     79         27  S    CARTESIAN X    -0.886018     -0.049501  KCAL/ANGSTROM
     80         27  S    CARTESIAN Y    -0.342320     -0.572499  KCAL/ANGSTROM
     81         27  S    CARTESIAN Z     0.431641     -0.104721  KCAL/ANGSTROM
     82         28  S    CARTESIAN X     7.586729      0.534610  KCAL/ANGSTROM
     83         28  S    CARTESIAN Y     0.024594     -0.453454  KCAL/ANGSTROM
     84         28  S    CARTESIAN Z    -1.048452     -0.157173  KCAL/ANGSTROM
     85         29  S    CARTESIAN X    -7.253453      1.128158  KCAL/ANGSTROM
     86         29  S    CARTESIAN Y    -1.897798     -0.273647  KCAL/ANGSTROM
     87         29  S    CARTESIAN Z    -0.436026      0.035483  KCAL/ANGSTROM
     88         30  H    CARTESIAN X     1.577194     -0.038785  KCAL/ANGSTROM
     89         30  H    CARTESIAN Y    -1.785904      0.005485  KCAL/ANGSTROM
     90         30  H    CARTESIAN Z     0.285150      0.240337  KCAL/ANGSTROM
     91         31  H    CARTESIAN X     0.729174      0.140593  KCAL/ANGSTROM
     92         31  H    CARTESIAN Y     4.002469     -0.222098  KCAL/ANGSTROM
     93         31  H    CARTESIAN Z     0.734192     -0.183792  KCAL/ANGSTROM
     94         32  H    CARTESIAN X    -1.007787      0.171437  KCAL/ANGSTROM
     95         32  H    CARTESIAN Y     4.000130     -0.002683  KCAL/ANGSTROM
     96         32  H    CARTESIAN Z     0.792079     -0.031130  KCAL/ANGSTROM
     97         33  H    CARTESIAN X     8.873174     -0.166356  KCAL/ANGSTROM
     98         33  H    CARTESIAN Y    -0.250576      0.016053  KCAL/ANGSTROM
     99         33  H    CARTESIAN Z     0.897069     -0.131676  KCAL/ANGSTROM
    100         34  H    CARTESIAN X     8.800644      0.155284  KCAL/ANGSTROM
    101         34  H    CARTESIAN Y     1.340807      0.102495  KCAL/ANGSTROM
    102         34  H    CARTESIAN Z     0.470653      0.026313  KCAL/ANGSTROM
    103         35  H    CARTESIAN X    -7.279417     -0.393773  KCAL/ANGSTROM
    104         35  H    CARTESIAN Y    -3.894186      0.029379  KCAL/ANGSTROM
    105         35  H    CARTESIAN Z     0.796434     -0.051271  KCAL/ANGSTROM
    106         36  H    CARTESIAN X    -6.482300      0.021279  KCAL/ANGSTROM
    107         36  H    CARTESIAN Y    -4.107360      0.071266  KCAL/ANGSTROM
    108         36  H    CARTESIAN Z    -0.631947     -0.188245  KCAL/ANGSTROM
    109         37  H    CARTESIAN X     3.030195     -0.007369  KCAL/ANGSTROM
    110         37  H    CARTESIAN Y     1.612020     -0.041974  KCAL/ANGSTROM
    111         37  H    CARTESIAN Z    -0.493768      0.200396  KCAL/ANGSTROM
    112         38  H    CARTESIAN X     5.391721     -0.225106  KCAL/ANGSTROM
    113         38  H    CARTESIAN Y     1.898919      0.047890  KCAL/ANGSTROM
    114         38  H    CARTESIAN Z    -1.015370      0.091890  KCAL/ANGSTROM
    115         39  H    CARTESIAN X     6.075219      0.079989  KCAL/ANGSTROM
    116         39  H    CARTESIAN Y    -2.332876      0.100983  KCAL/ANGSTROM
    117         39  H    CARTESIAN Z    -0.316207     -0.149508  KCAL/ANGSTROM
    118         40  H    CARTESIAN X     3.695879      0.105502  KCAL/ANGSTROM
    119         40  H    CARTESIAN Y    -2.618600     -0.083499  KCAL/ANGSTROM
    120         40  H    CARTESIAN Z     0.228272      0.170070  KCAL/ANGSTROM
    121         41  H    CARTESIAN X    -4.568885     -0.044348  KCAL/ANGSTROM
    122         41  H    CARTESIAN Y     1.135400     -0.044449  KCAL/ANGSTROM
    123         41  H    CARTESIAN Z     2.274849      0.057738  KCAL/ANGSTROM
    124         42  H    CARTESIAN X    -6.468500     -0.122264  KCAL/ANGSTROM
    125         42  H    CARTESIAN Y    -0.396169     -0.144338  KCAL/ANGSTROM
    126         42  H    CARTESIAN Z     1.894451      0.031483  KCAL/ANGSTROM
    127         43  H    CARTESIAN X    -5.089307      0.328328  KCAL/ANGSTROM
    128         43  H    CARTESIAN Y    -1.052136     -0.215990  KCAL/ANGSTROM
    129         43  H    CARTESIAN Z    -2.173594      0.062367  KCAL/ANGSTROM
    130         44  H    CARTESIAN X    -3.219314      0.152705  KCAL/ANGSTROM
    131         44  H    CARTESIAN Y     0.502352     -0.099260  KCAL/ANGSTROM
    132         44  H    CARTESIAN Z    -1.775776      0.058812  KCAL/ANGSTROM




   ATOM   CHEMICAL          X               Y               Z
  NUMBER   SYMBOL      (ANGSTROMS)     (ANGSTROMS)     (ANGSTROMS)

     1       N          1.05518401  *   1.46233625  *   0.49079703  *
     2       N          1.83500539  *  -0.78539521  *   0.20083388  *
     3       N         -0.13715361  *   3.47937153  *   0.73113624  *
     4       N          8.28888286  *   0.46004849  *   0.46228888  *
     5       N         -6.69333806  *  -3.43344599  *   0.10216064  *
     6       C         -1.33077955  *   1.34114777  *   0.53638175  *
     7       C         -0.16643589  *   2.15178098  *   0.59527093  *
     8       C          0.87021178  *   0.14618222  *   0.37157662  *
     9       C          3.19760208  *  -0.52292772  *  -0.08417491  *
    10       C         -2.65057346  *   1.84406991  *   0.51043116  *
    11       C         -3.77741257  *   0.89682103  *   0.27797241  *
    12       C          3.68538925  *   0.73952308  *  -0.43976828  *
    13       C          5.03499227  *   0.89624975  *  -0.73859088  *
    14       C          5.90303493  *  -0.19350535  *  -0.68965181  *
    15       C          5.41170664  *  -1.45728315  *  -0.34798330  *
    16       C          4.06868514  *  -1.62886488  *  -0.04357240  *
    17       C         -4.68674019  *   0.65159266  *   1.30337506  *
    18       C         -5.75435776  *  -0.21625663  *   1.07989509  *
    19       C         -5.90207455  *  -0.83097640  *  -0.16378077  *
    20       C         -4.99045631  *  -0.57868745  *  -1.18854216  *
    21       C         -3.92539875  *   0.29365691  *  -0.96970431  *
    22       O         -2.90305140  *   3.03690281  *   0.65986697  *
    23       O          8.16744716  *  -1.25457594  *  -1.44874918  *
    24       O          7.75381740  *   1.17620254  *  -1.93367128  *
    25       O         -7.50968371  *  -1.99621709  *  -1.86973442  *
    26       O         -8.34959286  *  -1.51624779  *   0.45114817  *
    27       S         -0.88601818  *  -0.34232026  *   0.43164098  *
    28       S          7.58672884  *   0.02459407  *  -1.04845151  *
    29       S         -7.25345317  *  -1.89779763  *  -0.43602647  *
    30       H          1.57719356  *  -1.78590444  *   0.28515027  *
    31       H          0.72917436  *   4.00246908  *   0.73419217  *
    32       H         -1.00778749  *   4.00013002  *   0.79207936  *
    33       H          8.87317391  *  -0.25057647  *   0.89706938  *
    34       H          8.80064415  *   1.34080722  *   0.47065344  *
    35       H         -7.27941716  *  -3.89418578  *   0.79643360  *
    36       H         -6.48229964  *  -4.10735971  *  -0.63194663  *
    37       H          3.03019466  *   1.61201954  *  -0.49376768  *
    38       H          5.39172123  *   1.89891918  *  -1.01536975  *
    39       H          6.07521854  *  -2.33287637  *  -0.31620673  *
    40       H          3.69587922  *  -2.61859952  *   0.22827239  *
    41       H         -4.56888473  *   1.13539973  *   2.27484930  *
    42       H         -6.46849974  *  -0.39616880  *   1.89445120  *
    43       H         -5.08930667  *  -1.05213609  *  -2.17359439  *
    44       H         -3.21931390  *   0.50235207  *  -1.77577616  *

                             CARTESIAN COORDINATES

   1    N        1.055184010     1.462336254     0.490797033
   2    N        1.835005394    -0.785395215     0.200833878
   3    N       -0.137153615     3.479371534     0.731136240
   4    N        8.288882865     0.460048488     0.462288877
   5    N       -6.693338061    -3.433445992     0.102160640
   6    C       -1.330779551     1.341147769     0.536381752
   7    C       -0.166435890     2.151780982     0.595270928
   8    C        0.870211784     0.146182224     0.371576616
   9    C        3.197602081    -0.522927716    -0.084174914
  10    C       -2.650573458     1.844069911     0.510431155
  11    C       -3.777412570     0.896821025     0.277972411
  12    C        3.685389254     0.739523081    -0.439768285
  13    C        5.034992273     0.896249747    -0.738590875
  14    C        5.903034929    -0.193505347    -0.689651808
  15    C        5.411706643    -1.457283145    -0.347983298
  16    C        4.068685136    -1.628864878    -0.043572398
  17    C       -4.686740191     0.651592660     1.303375060
  18    C       -5.754357760    -0.216256628     1.079895092
  19    C       -5.902074551    -0.830976397    -0.163780772
  20    C       -4.990456307    -0.578687453    -1.188542165
  21    C       -3.925398753     0.293656907    -0.969704309
  22    O       -2.903051397     3.036902809     0.659866974
  23    O        8.167447157    -1.254575939    -1.448749183
  24    O        7.753817401     1.176202536    -1.933671279
  25    O       -7.509683706    -1.996217093    -1.869734419
  26    O       -8.349592858    -1.516247791     0.451148169
  27    S       -0.886018184    -0.342320258     0.431640984
  28    S        7.586728836     0.024594066    -1.048451513
  29    S       -7.253453168    -1.897797630    -0.436026472
  30    H        1.577193560    -1.785904438     0.285150269
  31    H        0.729174358     4.002469080     0.734192166
  32    H       -1.007787491     4.000130019     0.792079362
  33    H        8.873173914    -0.250576472     0.897069380
  34    H        8.800644153     1.340807218     0.470653437
  35    H       -7.279417161    -3.894185777     0.796433598
  36    H       -6.482299640    -4.107359711    -0.631946633
  37    H        3.030194657     1.612019535    -0.493767678
  38    H        5.391721232     1.898919179    -1.015369752
  39    H        6.075218543    -2.332876367    -0.316206733
  40    H        3.695879221    -2.618599525     0.228272393
  41    H       -4.568884734     1.135399730     2.274849297
  42    H       -6.468499737    -0.396168797     1.894451197
  43    H       -5.089306672    -1.052136088    -2.173594393
  44    H       -3.219313901     0.502352067    -1.775776161


           Empirical Formula: C16 H15 N5 O5 S3  =    44 atoms



      MOLECULAR POINT GROUP   :   C1  


                  EIGENVALUES  
 -38.38949 -37.79216 -35.87408 -35.81380 -35.80034 -31.48407 -31.04508 -30.69268
 -29.41656 -29.29750 -28.40668 -27.86881 -27.76537 -26.75883 -26.52737 -26.42987
 -26.15622 -24.73073 -23.66763 -22.52882 -22.21311 -21.67838 -21.39414 -20.45993
 -19.82365 -19.78441 -19.51715 -18.43970 -17.90385 -17.49692 -17.02569 -16.83960
 -16.68843 -16.57614 -16.37846 -16.30473 -16.18433 -16.05469 -15.92546 -15.71227
 -15.40509 -15.27088 -15.16432 -14.82274 -14.78146 -14.73220 -14.54395 -14.50458
 -14.39084 -14.03395 -13.86431 -13.71002 -13.67769 -13.11373 -12.87127 -12.80444
 -12.66083 -12.49544 -12.41751 -12.34683 -12.28633 -12.22830 -12.16895 -11.84501
 -11.80758 -11.34638 -11.10538 -10.88190 -10.83482 -10.73422 -10.71112 -10.56129
 -10.38870 -10.32211  -9.58873  -8.84225  -1.30484  -0.98488  -0.87601  -0.47229
  -0.35931  -0.24932  -0.21312   0.19405   0.24178   0.28746   0.63279   0.66734
   0.74136   0.79840   1.31119   1.37998   1.70869   1.79837   1.83339   2.17357
   2.39340   2.45977   2.54777   2.62450   2.74490   2.79439   2.92508   3.06574
   3.49232   3.61572   3.72919   3.83686   4.01022   4.08188   4.18410   4.21988
   4.27528   4.37342   4.39019   4.40583   4.42876   4.49248   4.50265   4.52123
   4.62905   4.63593   4.74101   4.76310   4.85142   5.22285   5.28512   5.29630
   5.39862   5.44503   5.52270   5.65680   5.68109   5.73723   5.80838   5.82587
   5.87853   5.90816   5.91501   5.96857   6.12687   6.17760   6.25701   6.65344
   6.71070   6.72169


              NET ATOMIC CHARGES AND DIPOLE CONTRIBUTIONS

  ATOM NO.   TYPE          CHARGE      No. of ELECS.   s-Pop       p-Pop       d-Pop       
    1          N          -0.630387        5.6304     1.77098     3.85941
    2          N          -0.433642        5.4336     1.52317     3.91047
    3          N          -0.471208        5.4712     1.50984     3.96137
    4          N          -0.925397        5.9254     1.66873     4.25667
    5          N          -0.932356        5.9324     1.66925     4.26310
    6          C          -0.643066        4.6431     1.05368     3.58938
    7          C           0.516104        3.4839     1.05332     2.43058
    8          C           0.382649        3.6174     1.10778     2.50957
    9          C           0.244470        3.7555     1.06496     2.69057
   10          C           0.558645        3.4414     1.08086     2.36050
   11          C          -0.084171        4.0842     1.08533     2.99884
   12          C          -0.255636        4.2556     1.08323     3.17241
   13          C          -0.002839        4.0028     1.09337     2.90947
   14          C          -0.443161        4.4432     1.09987     3.34329
   15          C          -0.006263        4.0063     1.09206     2.91420
   16          C          -0.264374        4.2644     1.08200     3.18238
   17          C          -0.153588        4.1536     1.08499     3.06860
   18          C          -0.055180        4.0552     1.09229     2.96289
   19          C          -0.385180        4.3852     1.10740     3.27778
   20          C          -0.052613        4.0526     1.09164     2.96098
   21          C          -0.159748        4.1597     1.08519     3.07456
   22          O          -0.634884        6.6349     1.88029     4.75459
   23          O          -1.026474        7.0265     1.89293     5.13354
   24          O          -1.021780        7.0218     1.89342     5.12836
   25          O          -1.011028        7.0110     1.89348     5.11754
   26          O          -1.015409        7.0154     1.89315     5.12226
   27          S           0.126707        5.8733     1.89275     3.84348     0.13707
   28          S           2.465980        3.5340     1.16176     1.91203     0.46024
   29          S           2.456882        3.5431     1.16297     1.91645     0.46369
   30          H           0.377033        0.6230     0.62297
   31          H           0.352446        0.6476     0.64755
   32          H           0.356367        0.6436     0.64363
   33          H           0.319817        0.6802     0.68018
   34          H           0.321846        0.6782     0.67815
   35          H           0.321758        0.6782     0.67824
   36          H           0.322046        0.6780     0.67795
   37          H           0.201638        0.7984     0.79836
   38          H           0.187152        0.8128     0.81285
   39          H           0.186043        0.8140     0.81396
   40          H           0.186109        0.8139     0.81389
   41          H           0.176328        0.8237     0.82367
   42          H           0.187576        0.8124     0.81242
   43          H           0.185009        0.8150     0.81499
   44          H           0.175777        0.8242     0.82422
 DIPOLE           X         Y         Z       TOTAL
 POINT-CHG.     6.925    -4.696     6.178    10.401
 HYBRID        -0.397     0.423    -0.309     0.658
 SUM            6.528    -4.272     5.869     9.763


          ATOMIC ORBITAL ELECTRON POPULATIONS

     Atom    s        px        py        pz      x^2-y^2     xz        z^2       yz        xy
    1  N   1.77098   1.29943   1.11836   1.44162
    2  N   1.52317   1.12543   1.18517   1.59987
    3  N   1.50984   1.25288   1.11516   1.59332
    4  N   1.66873   1.56873   1.27610   1.41184
    5  N   1.66925   1.62777   1.26814   1.36719
    6  C   1.05368   1.03680   0.99745   1.55513
    7  C   1.05332   0.83985   0.81998   0.77075
    8  C   1.10778   0.86934   0.83225   0.80798
    9  C   1.06496   0.79118   0.98829   0.91109
   10  C   1.08086   0.88656   0.81965   0.65428
   11  C   1.08533   1.00301   0.99004   1.00578
   12  C   1.08323   1.04397   1.05352   1.07491
   13  C   1.09337   0.97162   1.05308   0.88477
   14  C   1.09987   1.09810   1.04138   1.20381
   15  C   1.09206   1.00914   1.02414   0.88092
   16  C   1.08200   1.00629   1.07428   1.10181
   17  C   1.08499   0.98087   1.02004   1.06769
   18  C   1.09229   1.01021   0.93905   1.01364
   19  C   1.10740   1.10621   1.12720   1.04436
   20  C   1.09164   0.94799   0.96236   1.05062
   21  C   1.08519   1.04339   0.99782   1.03336
   22  O   1.88029   1.88886   1.31160   1.55413
   23  O   1.89293   1.80225   1.50905   1.82224
   24  O   1.89342   1.86437   1.56708   1.69691
   25  O   1.89348   1.84298   1.85819   1.41638
   26  O   1.89315   1.61226   1.83046   1.67954
   27  S   1.89275   0.91273   1.06261   1.86814   0.05094   0.01813   0.02617   0.02951   0.01232
   28  S   1.16176   0.70305   0.59696   0.61201   0.13497   0.05945   0.08239   0.10505   0.07838
   29  S   1.16297   0.65175   0.66495   0.59975   0.05836   0.10504   0.14042   0.07421   0.08567
   30  H   0.62297
   31  H   0.64755
   32  H   0.64363
   33  H   0.68018
   34  H   0.67815
   35  H   0.67824
   36  H   0.67795
   37  H   0.79836
   38  H   0.81285
   39  H   0.81396
   40  H   0.81389
   41  H   0.82367
   42  H   0.81242
   43  H   0.81499
   44  H   0.82422

 **********************
 *                    *
 * JOB ENDED NORMALLY *
 *                    *
 **********************



 TOTAL JOB TIME:             3.79 SECONDS

 == MOPAC DONE ==
