 *******************************************************************************
 **                                                                           **
 **                              MOPAC v23.2.2                                **
 **                                                                           **
 *******************************************************************************
 **          Digital Object Identifier (DOI): 10.5281/zenodo.6511958          **
 **    Visit the DOI location for information on how to cite this program.    **
 *******************************************************************************

                              PM7 CALCULATION RESULTS

 *******************************************************************************
 *  CALCULATION DONE: (MAX THREADS = 24)             Wed Mar 18 14:17:04 2026  *
 *  PM7        - The PM7 Hamiltonian to be used
 *
 *
 *
 *                 CHARGE ON SYSTEM = 0
 *
 *
 *
 *  EPS=78.4   - USE ANDREAS KLAMT'S COSMO IMPLICIT SOLVATION MODEL
 *  T=         - A TIME OF 172800.0 SECONDS REQUESTED
 *  DUMP=N     - RESTART FILE WRITTEN EVERY 7200.0 SECONDS REQUESTED
 *******************************************************************************
PM7 CHARGE=0 EPS=78.4


   ATOM   CHEMICAL          X               Y               Z
  NUMBER   SYMBOL      (ANGSTROMS)     (ANGSTROMS)     (ANGSTROMS)

     1       N         -1.15620000  *  -0.24790000  *   1.49640000  *
     2       N         -1.92510000  *  -0.52020000  *  -0.75870000  *
     3       N          0.01600000  *  -0.12340000  *   3.48780000  *
     4       N         -7.84300000  *   2.33270000  *  -0.96780000  *
     5       N          8.40170000  *   0.55470000  *  -0.68090000  *
     6       C          1.13480000  *  -0.68550000  *   1.41880000  *
     7       C          0.02790000  *  -0.35490000  *   2.16640000  *
     8       C         -0.98980000  *  -0.51680000  *   0.22110000  *
     9       C         -3.29830000  *  -0.21950000  *  -0.68910000  *
    10       C          2.49130000  *  -0.89950000  *   1.87380000  *
    11       C          3.64160000  *  -0.67510000  *   0.95900000  *
    12       C         -4.06490000  *  -0.33780000  *  -1.86410000  *
    13       C         -5.43570000  *  -0.05890000  *  -1.87520000  *
    14       C         -6.06010000  *   0.35310000  *  -0.69950000  *
    15       C         -5.32950000  *   0.46580000  *   0.48220000  *
    16       C         -3.95780000  *   0.18420000  *   0.47930000  *
    17       C          3.73610000  *   0.48900000  *   0.18250000  *
    18       C          4.84060000  *   0.68310000  *  -0.65070000  *
    19       C          5.85410000  *  -0.27990000  *  -0.68660000  *
    20       C          5.77180000  *  -1.43920000  *   0.09190000  *
    21       C          4.66800000  *  -1.62970000  *   0.92490000  *
    22       O          2.76880000  *  -1.25890000  *   3.01920000  *
    23       O         -8.31320000  *   0.48270000  *   0.64400000  *
    24       O         -8.40180000  *   0.06670000  *  -1.85160000  *
    25       O          6.96220000  *   1.02860000  *  -2.66490000  *
    26       O          7.69740000  *  -1.35100000  *  -2.19870000  *
    27       S          0.64130000  *  -0.91770000  *  -0.20540000  *
    28       S         -7.79730000  *   0.67760000  *  -0.69050000  *
    29       S          7.25560000  *  -0.05220000  *  -1.75240000  *
    30       H         -1.60390000  *  -0.77660000  *  -1.68330000  *
    31       H         -0.88800000  *  -0.15680000  *   3.94820000  *
    32       H          0.76680000  *  -0.50940000  *   4.05960000  *
    33       H         -8.32390000  *   2.52290000  *  -1.84710000  *
    34       H         -8.25250000  *   2.80650000  *  -0.16220000  *
    35       H          8.64880000  *   1.50600000  *  -0.95980000  *
    36       H          8.11850000  *   0.50430000  *   0.29670000  *
    37       H         -3.59840000  *  -0.65660000  *  -2.79370000  *
    38       H         -6.00070000  *  -0.16740000  *  -2.79810000  *
    39       H         -5.81060000  *   0.76920000  *   1.40930000  *
    40       H         -3.42110000  *   0.28850000  *   1.41810000  *
    41       H          2.96350000  *   1.25430000  *   0.22590000  *
    42       H          4.90260000  *   1.58190000  *  -1.26190000  *
    43       H          6.55700000  *  -2.19280000  *   0.05260000  *
    44       H          4.60520000  *  -2.52410000  *   1.54300000  *



          CARTESIAN COORDINATES 

    NO.       ATOM           X           Y           Z

     1         N         -1.1562     -0.2479      1.4964
     2         N         -1.9251     -0.5202     -0.7587
     3         N          0.0160     -0.1234      3.4878
     4         N         -7.8430      2.3327     -0.9678
     5         N          8.4017      0.5547     -0.6809
     6         C          1.1348     -0.6855      1.4188
     7         C          0.0279     -0.3549      2.1664
     8         C         -0.9898     -0.5168      0.2211
     9         C         -3.2983     -0.2195     -0.6891
    10         C          2.4913     -0.8995      1.8738
    11         C          3.6416     -0.6751      0.9590
    12         C         -4.0649     -0.3378     -1.8641
    13         C         -5.4357     -0.0589     -1.8752
    14         C         -6.0601      0.3531     -0.6995
    15         C         -5.3295      0.4658      0.4822
    16         C         -3.9578      0.1842      0.4793
    17         C          3.7361      0.4890      0.1825
    18         C          4.8406      0.6831     -0.6507
    19         C          5.8541     -0.2799     -0.6866
    20         C          5.7718     -1.4392      0.0919
    21         C          4.6680     -1.6297      0.9249
    22         O          2.7688     -1.2589      3.0192
    23         O         -8.3132      0.4827      0.6440
    24         O         -8.4018      0.0667     -1.8516
    25         O          6.9622      1.0286     -2.6649
    26         O          7.6974     -1.3510     -2.1987
    27         S          0.6413     -0.9177     -0.2054
    28         S         -7.7973      0.6776     -0.6905
    29         S          7.2556     -0.0522     -1.7524
    30         H         -1.6039     -0.7766     -1.6833
    31         H         -0.8880     -0.1568      3.9482
    32         H          0.7668     -0.5094      4.0596
    33         H         -8.3239      2.5229     -1.8471
    34         H         -8.2525      2.8065     -0.1622
    35         H          8.6488      1.5060     -0.9598
    36         H          8.1185      0.5043      0.2967
    37         H         -3.5984     -0.6566     -2.7937
    38         H         -6.0007     -0.1674     -2.7981
    39         H         -5.8106      0.7692      1.4093
    40         H         -3.4211      0.2885      1.4181
    41         H          2.9635      1.2543      0.2259
    42         H          4.9026      1.5819     -1.2619
    43         H          6.5570     -2.1928      0.0526
    44         H          4.6052     -2.5241      1.5430

 General Reference for PM7:
 "Optimization of Parameters for Semiempirical Methods VI: More Modifications to the 
 NDDO Approximations and Re-optimization of Parameters", J. J. P. Stewart, J. Mol. Mod., 1:32, 19 (2013)
 https://link.springer.com/article/10.1007/s00894-012-1667-x

           Empirical Formula: C16 H15 N5 O5 S3  =    44 atoms



      MOLECULAR POINT GROUP   :   C1  


      RHF CALCULATION, NO. OF DOUBLY OCCUPIED LEVELS = 76


          Geometry optimization using L-BFGS
 CYCLE:     1 TIME:   0.121 TIME LEFT:  2.00D  GRAD.:   163.957 HEAT: -139.8118
 CYCLE:     2 TIME:   0.047 TIME LEFT:  2.00D  GRAD.:   161.255 HEAT: -140.0810
 CYCLE:     3 TIME:   0.051 TIME LEFT:  2.00D  GRAD.:    50.916 HEAT: -150.5172
 CYCLE:     4 TIME:   0.055 TIME LEFT:  2.00D  GRAD.:   161.477 HEAT: -140.0811
 CYCLE:     5 TIME:   0.051 TIME LEFT:  2.00D  GRAD.:    51.000 HEAT: -150.5162
 CYCLE:     6 TIME:   0.047 TIME LEFT:  2.00D  GRAD.:    45.942 HEAT: -151.9151
 CYCLE:     7 TIME:   0.047 TIME LEFT:  2.00D  GRAD.:    37.949 HEAT: -153.5154
 CYCLE:     8 TIME:   0.051 TIME LEFT:  2.00D  GRAD.:    71.842 HEAT: -154.4117
 CYCLE:     9 TIME:   0.047 TIME LEFT:  2.00D  GRAD.:    26.951 HEAT: -155.2967
 CYCLE:    10 TIME:   0.043 TIME LEFT:  2.00D  GRAD.:    18.142 HEAT: -155.6786
 CYCLE:    11 TIME:   0.047 TIME LEFT:  2.00D  GRAD.:    14.596 HEAT: -155.9579
 CYCLE:    12 TIME:   0.047 TIME LEFT:  2.00D  GRAD.:    25.887 HEAT: -156.5490
 CYCLE:    13 TIME:   0.047 TIME LEFT:  2.00D  GRAD.:    15.122 HEAT: -156.4503
 CYCLE:    14 TIME:   0.051 TIME LEFT:  2.00D  GRAD.:    11.923 HEAT: -156.6266
 CYCLE:    15 TIME:   0.047 TIME LEFT:  2.00D  GRAD.:    14.838 HEAT: -156.7999
 CYCLE:    16 TIME:   0.047 TIME LEFT:  2.00D  GRAD.:    21.575 HEAT: -156.9846
 CYCLE:    17 TIME:   0.047 TIME LEFT:  2.00D  GRAD.:    11.388 HEAT: -156.9401
 CYCLE:    18 TIME:   0.047 TIME LEFT:  2.00D  GRAD.:     8.015 HEAT: -157.1219
 CYCLE:    19 TIME:   0.043 TIME LEFT:  2.00D  GRAD.:     9.338 HEAT: -157.2186
 CYCLE:    20 TIME:   0.051 TIME LEFT:  2.00D  GRAD.:     9.074 HEAT: -157.3896
 CYCLE:    21 TIME:   0.047 TIME LEFT:  2.00D  GRAD.:    13.380 HEAT: -157.4029
 CYCLE:    22 TIME:   0.043 TIME LEFT:  2.00D  GRAD.:     7.832 HEAT: -157.4328
 CYCLE:    23 TIME:   0.043 TIME LEFT:  2.00D  GRAD.:     6.945 HEAT: -157.4656
 CYCLE:    24 TIME:   0.047 TIME LEFT:  2.00D  GRAD.:     9.554 HEAT: -157.4361
 CYCLE:    25 TIME:   0.047 TIME LEFT:  2.00D  GRAD.:     7.727 HEAT: -157.4684
 CYCLE:    26 TIME:   0.047 TIME LEFT:  2.00D  GRAD.:     9.670 HEAT: -157.5340
 CYCLE:    27 TIME:   0.047 TIME LEFT:  2.00D  GRAD.:     8.098 HEAT: -157.7791
 CYCLE:    28 TIME:   0.043 TIME LEFT:  2.00D  GRAD.:     5.958 HEAT: -157.8456
 CYCLE:    29 TIME:   0.047 TIME LEFT:  2.00D  GRAD.:     4.856 HEAT: -157.9495
 CYCLE:    30 TIME:   0.043 TIME LEFT:  2.00D  GRAD.:     7.429 HEAT: -157.9517
 CYCLE:    31 TIME:   0.043 TIME LEFT:  2.00D  GRAD.:     5.480 HEAT: -157.9768
 CYCLE:    32 TIME:   0.047 TIME LEFT:  2.00D  GRAD.:     6.449 HEAT: -158.0575
 CYCLE:    33 TIME:   0.047 TIME LEFT:  2.00D  GRAD.:     9.597 HEAT: -158.0939
 CYCLE:    34 TIME:   0.043 TIME LEFT:  2.00D  GRAD.:     5.706 HEAT: -158.1406
 CYCLE:    35 TIME:   0.043 TIME LEFT:  2.00D  GRAD.:     4.793 HEAT: -158.2076
 CYCLE:    36 TIME:   0.047 TIME LEFT:  2.00D  GRAD.:     6.203 HEAT: -158.2339
 CYCLE:    37 TIME:   0.047 TIME LEFT:  2.00D  GRAD.:     8.341 HEAT: -158.1691
 CYCLE:    38 TIME:   0.047 TIME LEFT:  2.00D  GRAD.:     7.097 HEAT: -158.1779
 CYCLE:    39 TIME:   0.047 TIME LEFT:  2.00D  GRAD.:     6.387 HEAT: -158.2601
 CYCLE:    40 TIME:   0.043 TIME LEFT:  2.00D  GRAD.:     5.466 HEAT: -158.1817
 CYCLE:    41 TIME:   0.047 TIME LEFT:  2.00D  GRAD.:     5.278 HEAT: -158.3091
 CYCLE:    42 TIME:   0.043 TIME LEFT:  2.00D  GRAD.:     5.186 HEAT: -158.1975
 CYCLE:    43 TIME:   0.047 TIME LEFT:  2.00D  GRAD.:     8.608 HEAT: -158.3138
 CYCLE:    44 TIME:   0.043 TIME LEFT:  2.00D  GRAD.:     8.235 HEAT: -158.3610
 CYCLE:    45 TIME:   0.047 TIME LEFT:  2.00D  GRAD.:     6.326 HEAT: -158.2778
 CYCLE:    46 TIME:   0.043 TIME LEFT:  2.00D  GRAD.:     5.346 HEAT: -158.2893
 CYCLE:    47 TIME:   0.047 TIME LEFT:  2.00D  GRAD.:     7.780 HEAT: -158.3074
 CYCLE:    48 TIME:   0.047 TIME LEFT:  2.00D  GRAD.:     6.648 HEAT: -158.4444
 CYCLE:    49 TIME:   0.047 TIME LEFT:  2.00D  GRAD.:     6.384 HEAT: -158.5049
 CYCLE:    50 TIME:   0.047 TIME LEFT:  2.00D  GRAD.:     6.178 HEAT: -158.4023
 CYCLE:    51 TIME:   0.047 TIME LEFT:  2.00D  GRAD.:     7.880 HEAT: -158.5131
 CYCLE:    52 TIME:   0.047 TIME LEFT:  2.00D  GRAD.:     8.390 HEAT: -158.4550
 CYCLE:    53 TIME:   0.051 TIME LEFT:  2.00D  GRAD.:    10.410 HEAT: -158.6304
 CYCLE:    54 TIME:   0.043 TIME LEFT:  2.00D  GRAD.:     6.092 HEAT: -158.7155
 CYCLE:    55 TIME:   0.043 TIME LEFT:  2.00D  GRAD.:     5.349 HEAT: -158.7531
 CYCLE:    56 TIME:   0.051 TIME LEFT:  2.00D  GRAD.:     8.164 HEAT: -158.8587
 CYCLE:    57 TIME:   0.047 TIME LEFT:  2.00D  GRAD.:     7.099 HEAT: -158.8936
 CYCLE:    58 TIME:   0.047 TIME LEFT:  2.00D  GRAD.:     6.583 HEAT: -158.8338
 CYCLE:    59 TIME:   0.047 TIME LEFT:  2.00D  GRAD.:     8.298 HEAT: -158.9188
 CYCLE:    60 TIME:   0.047 TIME LEFT:  2.00D  GRAD.:    13.579 HEAT: -159.1526
 CYCLE:    61 TIME:   0.047 TIME LEFT:  2.00D  GRAD.:     7.584 HEAT: -159.3456
 CYCLE:    62 TIME:   0.043 TIME LEFT:  2.00D  GRAD.:     8.073 HEAT: -159.3058
 CYCLE:    63 TIME:   0.047 TIME LEFT:  2.00D  GRAD.:     8.580 HEAT: -159.4475
 CYCLE:    64 TIME:   0.043 TIME LEFT:  2.00D  GRAD.:     9.246 HEAT: -159.4627
 CYCLE:    65 TIME:   0.051 TIME LEFT:  2.00D  GRAD.:     6.733 HEAT: -159.4948
 CYCLE:    66 TIME:   0.047 TIME LEFT:  2.00D  GRAD.:     8.644 HEAT: -159.2484
 CYCLE:    67 TIME:   0.047 TIME LEFT:  2.00D  GRAD.:     9.887 HEAT: -159.3228
 CYCLE:    68 TIME:   0.043 TIME LEFT:  2.00D  GRAD.:     6.875 HEAT: -159.2829
 CYCLE:    69 TIME:   0.047 TIME LEFT:  2.00D  GRAD.:     8.162 HEAT: -159.3662
 CYCLE:    70 TIME:   0.043 TIME LEFT:  2.00D  GRAD.:     9.636 HEAT: -159.3899
 CYCLE:    71 TIME:   0.047 TIME LEFT:  2.00D  GRAD.:     9.570 HEAT: -159.4830
 CYCLE:    72 TIME:   0.047 TIME LEFT:  2.00D  GRAD.:     8.928 HEAT: -159.6975
 CYCLE:    73 TIME:   0.047 TIME LEFT:  2.00D  GRAD.:    10.263 HEAT: -159.8490
 CYCLE:    74 TIME:   0.047 TIME LEFT:  2.00D  GRAD.:    12.922 HEAT: -159.9044
 CYCLE:    75 TIME:   0.047 TIME LEFT:  2.00D  GRAD.:    12.668 HEAT: -159.8986
 CYCLE:    76 TIME:   0.051 TIME LEFT:  2.00D  GRAD.:    11.718 HEAT: -159.9624
 CYCLE:    77 TIME:   0.043 TIME LEFT:  2.00D  GRAD.:     5.449 HEAT: -160.0084
 CYCLE:    78 TIME:   0.043 TIME LEFT:  2.00D  GRAD.:     5.833 HEAT: -159.9452
 CYCLE:    79 TIME:   0.047 TIME LEFT:  2.00D  GRAD.:     8.727 HEAT: -159.9962
 CYCLE:    80 TIME:   0.047 TIME LEFT:  2.00D  GRAD.:    13.619 HEAT: -159.9105
 CYCLE:    81 TIME:   0.043 TIME LEFT:  2.00D  GRAD.:     8.532 HEAT: -159.9881
 CYCLE:    82 TIME:   0.047 TIME LEFT:  2.00D  GRAD.:    10.128 HEAT: -160.0669
 CYCLE:    83 TIME:   0.043 TIME LEFT:  2.00D  GRAD.:    10.997 HEAT: -160.1731
 CYCLE:    84 TIME:   0.047 TIME LEFT:  2.00D  GRAD.:     8.269 HEAT: -160.0735
 CYCLE:    85 TIME:   0.047 TIME LEFT:  2.00D  GRAD.:     7.176 HEAT: -160.1022
 CYCLE:    86 TIME:   0.043 TIME LEFT:  2.00D  GRAD.:    10.140 HEAT: -160.1578
 CYCLE:    87 TIME:   0.047 TIME LEFT:  2.00D  GRAD.:     7.962 HEAT: -160.2486
 CYCLE:    88 TIME:   0.043 TIME LEFT:  2.00D  GRAD.:     8.599 HEAT: -160.2706
 CYCLE:    89 TIME:   0.047 TIME LEFT:  2.00D  GRAD.:    15.319 HEAT: -160.2748
 CYCLE:    90 TIME:   0.043 TIME LEFT:  2.00D  GRAD.:     7.920 HEAT: -160.3612
 CYCLE:    91 TIME:   0.047 TIME LEFT:  2.00D  GRAD.:     6.701 HEAT: -160.4145
 CYCLE:    92 TIME:   0.047 TIME LEFT:  2.00D  GRAD.:     7.982 HEAT: -160.4903
 CYCLE:    93 TIME:   0.043 TIME LEFT:  2.00D  GRAD.:    11.158 HEAT: -160.5985
 CYCLE:    94 TIME:   0.047 TIME LEFT:  2.00D  GRAD.:    10.310 HEAT: -160.6165
 CYCLE:    95 TIME:   0.047 TIME LEFT:  2.00D  GRAD.:     8.616 HEAT: -160.7126
 CYCLE:    96 TIME:   0.047 TIME LEFT:  2.00D  GRAD.:    13.950 HEAT: -160.6713
 CYCLE:    97 TIME:   0.047 TIME LEFT:  2.00D  GRAD.:     9.366 HEAT: -160.7198
 CYCLE:    98 TIME:   0.043 TIME LEFT:  2.00D  GRAD.:     7.795 HEAT: -160.7699
 CYCLE:    99 TIME:   0.047 TIME LEFT:  2.00D  GRAD.:     6.758 HEAT: -160.8807
 CYCLE:   100 TIME:   0.043 TIME LEFT:  2.00D  GRAD.:     6.343 HEAT: -160.9141
 CYCLE:   101 TIME:   0.047 TIME LEFT:  2.00D  GRAD.:     6.051 HEAT: -161.0174
 CYCLE:   102 TIME:   0.043 TIME LEFT:  2.00D  GRAD.:     6.496 HEAT: -161.0418
 CYCLE:   103 TIME:   0.047 TIME LEFT:  2.00D  GRAD.:     7.809 HEAT: -161.1565
 CYCLE:   104 TIME:   0.043 TIME LEFT:  2.00D  GRAD.:     8.986 HEAT: -161.1400
 CYCLE:   105 TIME:   0.043 TIME LEFT:  2.00D  GRAD.:     5.171 HEAT: -161.1696
 CYCLE:   106 TIME:   0.043 TIME LEFT:  2.00D  GRAD.:     4.595 HEAT: -161.2696
 CYCLE:   107 TIME:   0.051 TIME LEFT:  2.00D  GRAD.:     6.320 HEAT: -161.3541
 CYCLE:   108 TIME:   0.043 TIME LEFT:  2.00D  GRAD.:    12.793 HEAT: -161.3659
 CYCLE:   109 TIME:   0.047 TIME LEFT:  2.00D  GRAD.:     5.869 HEAT: -161.3961
 CYCLE:   110 TIME:   0.043 TIME LEFT:  2.00D  GRAD.:     4.752 HEAT: -161.5780
 CYCLE:   111 TIME:   0.047 TIME LEFT:  2.00D  GRAD.:     7.096 HEAT: -161.5061
 CYCLE:   112 TIME:   0.043 TIME LEFT:  2.00D  GRAD.:     5.441 HEAT: -161.5577
 CYCLE:   113 TIME:   0.043 TIME LEFT:  2.00D  GRAD.:     4.076 HEAT: -161.4471
 CYCLE:   114 TIME:   0.047 TIME LEFT:  2.00D  GRAD.:     5.614 HEAT: -161.4275
 CYCLE:   115 TIME:   0.043 TIME LEFT:  2.00D  GRAD.:     6.702 HEAT: -161.4416
 CYCLE:   116 TIME:   0.043 TIME LEFT:  2.00D  GRAD.:     3.396 HEAT: -161.4536
 CYCLE:   117 TIME:   0.043 TIME LEFT:  2.00D  GRAD.:     3.577 HEAT: -161.5085
 CYCLE:   118 TIME:   0.043 TIME LEFT:  2.00D  GRAD.:     5.032 HEAT: -161.5364
 CYCLE:   119 TIME:   0.047 TIME LEFT:  2.00D  GRAD.:     4.100 HEAT: -161.5610
 CYCLE:   120 TIME:   0.043 TIME LEFT:  2.00D  GRAD.:     3.900 HEAT: -161.5905
 CYCLE:   121 TIME:   0.043 TIME LEFT:  2.00D  GRAD.:     4.100 HEAT: -161.5570
 CYCLE:   122 TIME:   0.043 TIME LEFT:  2.00D  GRAD.:     3.615 HEAT: -161.5065
 CYCLE:   123 TIME:   0.047 TIME LEFT:  2.00D  GRAD.:     4.390 HEAT: -161.5271
 CYCLE:   124 TIME:   0.047 TIME LEFT:  2.00D  GRAD.:     4.606 HEAT: -161.5384
 CYCLE:   125 TIME:   0.043 TIME LEFT:  2.00D  GRAD.:     3.628 HEAT: -161.5488
 CYCLE:   126 TIME:   0.059 TIME LEFT:  2.00D  GRAD.:     3.084 HEAT: -161.5996
 CYCLE:   127 TIME:   0.047 TIME LEFT:  2.00D  GRAD.:     2.928 HEAT: -161.6174
 CYCLE:   128 TIME:   0.047 TIME LEFT:  2.00D  GRAD.:     3.622 HEAT: -161.5183
 CYCLE:   129 TIME:   0.043 TIME LEFT:  2.00D  GRAD.:     5.970 HEAT: -161.5588
 CYCLE:   130 TIME:   0.043 TIME LEFT:  2.00D  GRAD.:     2.308 HEAT: -161.5687
 CYCLE:   131 TIME:   0.043 TIME LEFT:  2.00D  GRAD.:     2.145 HEAT: -161.5729
 CYCLE:   132 TIME:   0.051 TIME LEFT:  2.00D  GRAD.:     2.616 HEAT: -161.5828
 CYCLE:   133 TIME:   0.043 TIME LEFT:  2.00D  GRAD.:     3.133 HEAT: -161.5861
 CYCLE:   134 TIME:   0.047 TIME LEFT:  2.00D  GRAD.:     2.755 HEAT: -161.5796
 CYCLE:   135 TIME:   0.043 TIME LEFT:  2.00D  GRAD.:     2.503 HEAT: -161.5798
 CYCLE:   136 TIME:   0.047 TIME LEFT:  2.00D  GRAD.:     1.987 HEAT: -161.5781
 CYCLE:   137 TIME:   0.043 TIME LEFT:  2.00D  GRAD.:     1.994 HEAT: -161.5588
 CYCLE:   138 TIME:   0.047 TIME LEFT:  2.00D  GRAD.:     3.792 HEAT: -161.4247
 CYCLE:   139 TIME:   0.047 TIME LEFT:  2.00D  GRAD.:     2.940 HEAT: -161.4273
 CYCLE:   140 TIME:   0.043 TIME LEFT:  2.00D  GRAD.:     1.847 HEAT: -161.4255
 CYCLE:   141 TIME:   0.047 TIME LEFT:  2.00D  GRAD.:     1.979 HEAT: -161.4235
 CYCLE:   142 TIME:   0.047 TIME LEFT:  2.00D  GRAD.:     1.869 HEAT: -161.4231
 CYCLE:   143 TIME:   0.047 TIME LEFT:  2.00D  GRAD.:     1.669 HEAT: -161.4318
 CYCLE:   144 TIME:   0.047 TIME LEFT:  2.00D  GRAD.:     1.911 HEAT: -161.4581
 CYCLE:   145 TIME:   0.047 TIME LEFT:  2.00D  GRAD.:     3.506 HEAT: -161.4167
 CYCLE:   146 TIME:   0.043 TIME LEFT:  2.00D  GRAD.:     1.590 HEAT: -161.4298
 CYCLE:   147 TIME:   0.043 TIME LEFT:  2.00D  GRAD.:     1.222 HEAT: -161.5552
 CYCLE:   148 TIME:   0.047 TIME LEFT:  2.00D  GRAD.:     1.749 HEAT: -161.5569
 CYCLE:   149 TIME:   0.047 TIME LEFT:  2.00D  GRAD.:     2.115 HEAT: -161.5839
 CYCLE:   150 TIME:   0.047 TIME LEFT:  2.00D  GRAD.:     1.917 HEAT: -161.5815
 CYCLE:   151 TIME:   0.051 TIME LEFT:  2.00D  GRAD.:     4.064 HEAT: -161.5524
 CYCLE:   152 TIME:   0.043 TIME LEFT:  2.00D  GRAD.:     1.818 HEAT: -161.6075
 CYCLE:   153 TIME:   0.047 TIME LEFT:  2.00D  GRAD.:     1.767 HEAT: -161.6130
 CYCLE:   154 TIME:   0.047 TIME LEFT:  2.00D  GRAD.:     1.861 HEAT: -161.6257
 CYCLE:   155 TIME:   0.047 TIME LEFT:  2.00D  GRAD.:     1.816 HEAT: -161.6222
 CYCLE:   156 TIME:   0.051 TIME LEFT:  2.00D  GRAD.:     6.271 HEAT: -161.6170
 CYCLE:   157 TIME:   0.043 TIME LEFT:  2.00D  GRAD.:     1.626 HEAT: -161.6473
 CYCLE:   158 TIME:   0.047 TIME LEFT:  2.00D  GRAD.:     1.491 HEAT: -161.6270
 CYCLE:   159 TIME:   0.051 TIME LEFT:  2.00D  GRAD.:     3.512 HEAT: -161.5149
 CYCLE:   160 TIME:   0.047 TIME LEFT:  2.00D  GRAD.:     3.111 HEAT: -161.5295
 CYCLE:   161 TIME:   0.047 TIME LEFT:  2.00D  GRAD.:     1.523 HEAT: -161.5374
 CYCLE:   162 TIME:   0.043 TIME LEFT:  2.00D  GRAD.:     1.369 HEAT: -161.5395
 CYCLE:   163 TIME:   0.047 TIME LEFT:  2.00D  GRAD.:     1.935 HEAT: -161.5551
 CYCLE:   164 TIME:   0.047 TIME LEFT:  2.00D  GRAD.:     2.135 HEAT: -161.5878
 CYCLE:   165 TIME:   0.047 TIME LEFT:  2.00D  GRAD.:     6.711 HEAT: -161.6350
 CYCLE:   166 TIME:   0.043 TIME LEFT:  2.00D  GRAD.:     1.694 HEAT: -161.6561
 CYCLE:   167 TIME:   0.043 TIME LEFT:  2.00D  GRAD.:     1.021 HEAT: -161.6520
 CYCLE:   168 TIME:   0.047 TIME LEFT:  2.00D  GRAD.:     1.430 HEAT: -161.6470
 CYCLE:   169 TIME:   0.047 TIME LEFT:  2.00D  GRAD.:     2.099 HEAT: -161.6913
 CYCLE:   170 TIME:   0.047 TIME LEFT:  2.00D  GRAD.:     2.157 HEAT: -161.6759
 CYCLE:   171 TIME:   0.047 TIME LEFT:  2.00D  GRAD.:     1.845 HEAT: -161.6879
 CYCLE:   172 TIME:   0.047 TIME LEFT:  2.00D  GRAD.:     2.496 HEAT: -161.6921
 CYCLE:   173 TIME:   0.043 TIME LEFT:  2.00D  GRAD.:     1.735 HEAT: -161.6935
 CYCLE:   174 TIME:   0.047 TIME LEFT:  2.00D  GRAD.:     1.533 HEAT: -161.6889
 CYCLE:   175 TIME:   0.051 TIME LEFT:  2.00D  GRAD.:     2.327 HEAT: -161.6596
 CYCLE:   176 TIME:   0.047 TIME LEFT:  2.00D  GRAD.:     1.934 HEAT: -161.6571
 CYCLE:   177 TIME:   0.047 TIME LEFT:  2.00D  GRAD.:     1.292 HEAT: -161.6246
 CYCLE:   178 TIME:   0.051 TIME LEFT:  2.00D  GRAD.:     2.691 HEAT: -161.6472
 CYCLE:   179 TIME:   0.043 TIME LEFT:  2.00D  GRAD.:     1.382 HEAT: -161.6378
 CYCLE:   180 TIME:   0.051 TIME LEFT:  2.00D  GRAD.:     1.155 HEAT: -161.6860
 CYCLE:   181 TIME:   0.047 TIME LEFT:  2.00D  GRAD.:     2.339 HEAT: -161.6859
 CYCLE:   182 TIME:   0.043 TIME LEFT:  2.00D  GRAD.:     1.233 HEAT: -161.6483
 CYCLE:   183 TIME:   0.051 TIME LEFT:  2.00D  GRAD.:     1.182 HEAT: -161.6497
 CYCLE:   184 TIME:   0.043 TIME LEFT:  2.00D  GRAD.:     2.137 HEAT: -161.6496
 CYCLE:   185 TIME:   0.047 TIME LEFT:  2.00D  GRAD.:     0.922 HEAT: -161.6477


          CURRENT BEST VALUE OF HEAT OF FORMATION =   -161.693587

 PM7 CHARGE=0 EPS=78.4


  N    -1.26963320 +1  -0.54678321 +1   1.38072335 +1
  N    -1.92970184 +1  -0.48720979 +1  -0.92356423 +1
  N    -0.18039473 +1  -0.59018643 +1   3.46889889 +1
  N    -7.79558772 +1   2.35515478 +1  -0.77150564 +1
  N     8.50625120 +1   0.09169221 +1  -0.54541200 +1
  C     1.12074433 +1  -0.56072231 +1   1.38777935 +1
  C    -0.08459757 +1  -0.56750930 +1   2.13683830 +1
  C    -1.01498619 +1  -0.53467415 +1   0.06978063 +1
  C    -3.32070626 +1  -0.26699319 +1  -0.76992726 +1
  C     2.41433254 +1  -0.50177250 +1   1.94894134 +1
  C     3.58402078 +1  -0.38308965 +1   1.03140026 +1
  C    -4.10233582 +1  -0.43371074 +1  -1.93018926 +1
  C    -5.46366412 +1  -0.17082955 +1  -1.88624754 +1
  C    -6.06173732 +1   0.25694368 +1  -0.69765301 +1
  C    -5.28910011 +1   0.39632093 +1   0.45512310 +1
  C    -3.92170504 +1   0.13893479 +1   0.42664480 +1
  C     3.90307340 +1   0.86140626 +1   0.49266682 +1
  C     5.01176190 +1   0.98214180 +1  -0.34295536 +1
  C     5.79039081 +1  -0.13928968 +1  -0.62718867 +1
  C     5.46066304 +1  -1.38441837 +1  -0.09136626 +1
  C     4.35234235 +1  -1.50817394 +1   0.74450834 +1
  O     2.61537257 +1  -0.52792768 +1   3.16080255 +1
  O    -8.30528718 +1   0.28937187 +1   0.65071702 +1
  O    -8.40356843 +1   0.10478873 +1  -1.85349289 +1
  O     7.13155724 +1   1.28807318 +1  -2.36378230 +1
  O     7.35085121 +1  -1.20888649 +1  -2.43285068 +1
  S     0.76693996 +1  -0.58349065 +1  -0.31895641 +1
  S    -7.75341617 +1   0.63744433 +1  -0.65738328 +1
  S     7.19116130 +1   0.01436601 +1  -1.65286147 +1
  H    -1.60152367 +1  -0.61036831 +1  -1.90017839 +1
  H    -1.07042927 +1  -0.56092168 +1   3.94683966 +1
  H     0.66305185 +1  -0.59441280 +1   4.03576154 +1
  H    -8.14800893 +1   2.73032046 +1  -1.64936618 +1
  H    -8.27145099 +1   2.83304631 +1  -0.00866327 +1
  H     9.18127583 +1  -0.66855579 +1  -0.61366400 +1
  H     9.02059980 +1   0.97105365 +1  -0.54086724 +1
  H    -3.64316263 +1  -0.75967975 +1  -2.86564778 +1
  H    -6.05582254 +1  -0.30199595 +1  -2.80304648 +1
  H    -5.73815518 +1   0.71612672 +1   1.40609621 +1
  H    -3.34032400 +1   0.27551244 +1   1.34123335 +1
  H     3.29530983 +1   1.73829277 +1   0.72308834 +1
  H     5.25244187 +1   1.96780847 +1  -0.76318645 +1
  H     6.05836690 +1  -2.27836560 +1  -0.31064426 +1
  H     4.09441148 +1  -2.47897557 +1   1.17154523 +1



 -------------------------------------------------------------------------------
 PM7 CHARGE=0 EPS=78.4




     HERBERTS TEST WAS SATISFIED IN BFGS                      
     SCF FIELD WAS ACHIEVED                                   


                              PM7 CALCULATION
                                                       MOPAC v23.2.2 Linux
                                                       Wed Mar 18 14:17:13 2026




          FINAL HEAT OF FORMATION =       -161.69359 KCAL/MOL =    -676.52597 KJ/MOL
          VAN DER WAALS AREA      =        413.99 SQUARE ANGSTROMS



          DIELECTRIC ENERGY       =         -2.59997 EV
          COSMO AREA              =        413.99 SQUARE ANGSTROMS
          COSMO VOLUME            =        462.78 CUBIC ANGSTROMS

          GRADIENT NORM           =          1.73548          =       0.26163 PER ATOM
          IONIZATION POTENTIAL    =          8.791173 EV
          HOMO LUMO ENERGIES (EV) =         -8.791 -1.281
          NO. OF FILLED LEVELS    =         76
          MOLECULAR WEIGHT        =        453.5050         POINT GROUP:  C1  

          MOLECULAR DIMENSIONS (Angstroms)

            Atom       Atom       Distance
            H    35    H    34    17.81081
            H    32    H    38     7.13604
            H    42    H    44     4.81835


          SCF CALCULATIONS        =        187

          WALL-CLOCK TIME         =      8.625 SECONDS
          COMPUTATION TIME        =          3 MINUTES AND 26.762 SECONDS




   ATOM   CHEMICAL          X               Y               Z
  NUMBER   SYMBOL      (ANGSTROMS)     (ANGSTROMS)     (ANGSTROMS)

     1       N         -1.26963320  *  -0.54678321  *   1.38072335  *
     2       N         -1.92970184  *  -0.48720979  *  -0.92356423  *
     3       N         -0.18039473  *  -0.59018643  *   3.46889889  *
     4       N         -7.79558772  *   2.35515478  *  -0.77150564  *
     5       N          8.50625120  *   0.09169221  *  -0.54541200  *
     6       C          1.12074433  *  -0.56072231  *   1.38777935  *
     7       C         -0.08459757  *  -0.56750930  *   2.13683830  *
     8       C         -1.01498619  *  -0.53467415  *   0.06978063  *
     9       C         -3.32070626  *  -0.26699319  *  -0.76992726  *
    10       C          2.41433254  *  -0.50177250  *   1.94894134  *
    11       C          3.58402078  *  -0.38308965  *   1.03140026  *
    12       C         -4.10233582  *  -0.43371074  *  -1.93018926  *
    13       C         -5.46366412  *  -0.17082955  *  -1.88624754  *
    14       C         -6.06173732  *   0.25694368  *  -0.69765301  *
    15       C         -5.28910011  *   0.39632093  *   0.45512310  *
    16       C         -3.92170504  *   0.13893479  *   0.42664480  *
    17       C          3.90307340  *   0.86140626  *   0.49266682  *
    18       C          5.01176190  *   0.98214180  *  -0.34295536  *
    19       C          5.79039081  *  -0.13928968  *  -0.62718867  *
    20       C          5.46066304  *  -1.38441837  *  -0.09136626  *
    21       C          4.35234235  *  -1.50817394  *   0.74450834  *
    22       O          2.61537257  *  -0.52792768  *   3.16080255  *
    23       O         -8.30528718  *   0.28937187  *   0.65071702  *
    24       O         -8.40356843  *   0.10478873  *  -1.85349289  *
    25       O          7.13155724  *   1.28807318  *  -2.36378230  *
    26       O          7.35085121  *  -1.20888649  *  -2.43285068  *
    27       S          0.76693996  *  -0.58349065  *  -0.31895641  *
    28       S         -7.75341617  *   0.63744433  *  -0.65738328  *
    29       S          7.19116130  *   0.01436601  *  -1.65286147  *
    30       H         -1.60152367  *  -0.61036831  *  -1.90017839  *
    31       H         -1.07042927  *  -0.56092168  *   3.94683966  *
    32       H          0.66305185  *  -0.59441280  *   4.03576154  *
    33       H         -8.14800893  *   2.73032046  *  -1.64936618  *
    34       H         -8.27145099  *   2.83304631  *  -0.00866327  *
    35       H          9.18127583  *  -0.66855579  *  -0.61366400  *
    36       H          9.02059980  *   0.97105365  *  -0.54086724  *
    37       H         -3.64316263  *  -0.75967975  *  -2.86564778  *
    38       H         -6.05582254  *  -0.30199595  *  -2.80304648  *
    39       H         -5.73815518  *   0.71612672  *   1.40609621  *
    40       H         -3.34032400  *   0.27551244  *   1.34123335  *
    41       H          3.29530983  *   1.73829277  *   0.72308834  *
    42       H          5.25244187  *   1.96780847  *  -0.76318645  *
    43       H          6.05836690  *  -2.27836560  *  -0.31064426  *
    44       H          4.09441148  *  -2.47897557  *   1.17154523  *

                             CARTESIAN COORDINATES

   1    N       -1.269633203    -0.546783215     1.380723348
   2    N       -1.929701842    -0.487209792    -0.923564227
   3    N       -0.180394726    -0.590186426     3.468898888
   4    N       -7.795587724     2.355154776    -0.771505644
   5    N        8.506251197     0.091692208    -0.545412001
   6    C        1.120744326    -0.560722311     1.387779347
   7    C       -0.084597575    -0.567509300     2.136838301
   8    C       -1.014986188    -0.534674153     0.069780630
   9    C       -3.320706256    -0.266993185    -0.769927264
  10    C        2.414332541    -0.501772497     1.948941341
  11    C        3.584020781    -0.383089651     1.031400261
  12    C       -4.102335818    -0.433710744    -1.930189257
  13    C       -5.463664119    -0.170829550    -1.886247541
  14    C       -6.061737320     0.256943677    -0.697653014
  15    C       -5.289100107     0.396320925     0.455123098
  16    C       -3.921705043     0.138934791     0.426644796
  17    C        3.903073403     0.861406262     0.492666817
  18    C        5.011761903     0.982141795    -0.342955357
  19    C        5.790390807    -0.139289680    -0.627188669
  20    C        5.460663036    -1.384418365    -0.091366261
  21    C        4.352342353    -1.508173936     0.744508336
  22    O        2.615372571    -0.527927676     3.160802554
  23    O       -8.305287185     0.289371868     0.650717020
  24    O       -8.403568430     0.104788725    -1.853492890
  25    O        7.131557240     1.288073181    -2.363782296
  26    O        7.350851211    -1.208886489    -2.432850682
  27    S        0.766939957    -0.583490650    -0.318956412
  28    S       -7.753416170     0.637444328    -0.657383281
  29    S        7.191161300     0.014366013    -1.652861469
  30    H       -1.601523669    -0.610368312    -1.900178385
  31    H       -1.070429272    -0.560921683     3.946839657
  32    H        0.663051853    -0.594412800     4.035761538
  33    H       -8.148008935     2.730320460    -1.649366181
  34    H       -8.271450990     2.833046309    -0.008663274
  35    H        9.181275831    -0.668555794    -0.613663998
  36    H        9.020599801     0.971053646    -0.540867236
  37    H       -3.643162632    -0.759679753    -2.865647782
  38    H       -6.055822544    -0.301995949    -2.803046478
  39    H       -5.738155176     0.716126715     1.406096210
  40    H       -3.340324003     0.275512436     1.341233353
  41    H        3.295309830     1.738292771     0.723088342
  42    H        5.252441873     1.967808470    -0.763186454
  43    H        6.058366895    -2.278365597    -0.310644257
  44    H        4.094411483    -2.478975575     1.171545231


           Empirical Formula: C16 H15 N5 O5 S3  =    44 atoms



      MOLECULAR POINT GROUP   :   C1  


                  EIGENVALUES  
 -38.36886 -37.78854 -35.86239 -35.80073 -35.79196 -31.49716 -31.03516 -30.68962
 -29.43033 -29.31237 -28.38403 -27.87375 -27.76285 -26.77148 -26.52993 -26.45481
 -26.15660 -24.70565 -23.67425 -22.52915 -22.19484 -21.69424 -21.40845 -20.46164
 -19.83614 -19.77853 -19.51059 -18.41322 -17.89936 -17.48758 -17.00887 -16.82709
 -16.70974 -16.60078 -16.40002 -16.27681 -16.16155 -16.07394 -15.89770 -15.76094
 -15.38569 -15.26324 -15.16478 -14.82127 -14.77755 -14.73262 -14.56545 -14.49889
 -14.37993 -14.01038 -13.91830 -13.73588 -13.66628 -13.10894 -12.90390 -12.79819
 -12.64102 -12.51132 -12.40585 -12.37837 -12.28473 -12.25637 -12.16798 -11.86170
 -11.79396 -11.31531 -11.09373 -10.86272 -10.83846 -10.72894 -10.69279 -10.56100
 -10.38501 -10.34861  -9.58418  -8.79117  -1.28097  -0.93511  -0.84529  -0.40806
  -0.35358  -0.27111  -0.20763   0.25226   0.27010   0.28650   0.56485   0.71589
   0.76880   0.82136   1.34683   1.39382   1.67685   1.80829   1.84005   2.18613
   2.34375   2.45684   2.53915   2.64900   2.74341   2.78275   2.92676   3.05712
   3.50008   3.62139   3.71371   3.84571   4.00651   4.08668   4.19304   4.21051
   4.27317   4.36843   4.38687   4.40172   4.43615   4.48457   4.49785   4.50976
   4.63237   4.64999   4.74478   4.76499   4.83158   5.22552   5.28324   5.30940
   5.35912   5.43291   5.52129   5.66035   5.66312   5.73291   5.81222   5.81388
   5.86124   5.90340   5.91053   5.98699   6.13035   6.17084   6.25243   6.65649
   6.69566   6.73858


              NET ATOMIC CHARGES AND DIPOLE CONTRIBUTIONS

  ATOM NO.   TYPE          CHARGE      No. of ELECS.   s-Pop       p-Pop       d-Pop       
    1          N          -0.633548        5.6335     1.77143     3.86212
    2          N          -0.433641        5.4336     1.52340     3.91024
    3          N          -0.475039        5.4750     1.50939     3.96564
    4          N          -0.931223        5.9312     1.66889     4.26233
    5          N          -0.918655        5.9187     1.66979     4.24886
    6          C          -0.641650        4.6417     1.05369     3.58796
    7          C           0.516577        3.4834     1.05329     2.43013
    8          C           0.381465        3.6185     1.10852     2.51001
    9          C           0.245314        3.7547     1.06505     2.68964
   10          C           0.559624        3.4404     1.08081     2.35957
   11          C          -0.080710        4.0807     1.08580     2.99491
   12          C          -0.264832        4.2648     1.08190     3.18293
   13          C          -0.004795        4.0048     1.09203     2.91277
   14          C          -0.449436        4.4494     1.10049     3.34895
   15          C          -0.002229        4.0022     1.09327     2.90895
   16          C          -0.256757        4.2568     1.08305     3.17370
   17          C          -0.161137        4.1611     1.08461     3.07653
   18          C          -0.051246        4.0512     1.09213     2.95911
   19          C          -0.381439        4.3814     1.10613     3.27531
   20          C          -0.054934        4.0549     1.09166     2.96327
   21          C          -0.157914        4.1579     1.08435     3.07356
   22          O          -0.639187        6.6392     1.88042     4.75877
   23          O          -1.016399        7.0164     1.89371     5.12269
   24          O          -1.023465        7.0235     1.89357     5.12989
   25          O          -1.021302        7.0213     1.89267     5.12863
   26          O          -1.018979        7.0190     1.89261     5.12637
   27          S           0.144780        5.8552     1.89317     3.82987     0.13219
   28          S           2.470371        3.5296     1.15992     1.91088     0.45883
   29          S           2.447954        3.5520     1.16605     1.92046     0.46554
   30          H           0.378070        0.6219     0.62193
   31          H           0.349393        0.6506     0.65061
   32          H           0.355114        0.6449     0.64489
   33          H           0.320018        0.6800     0.67998
   34          H           0.321495        0.6785     0.67851
   35          H           0.321552        0.6784     0.67845
   36          H           0.323419        0.6766     0.67658
   37          H           0.185899        0.8141     0.81410
   38          H           0.186144        0.8139     0.81386
   39          H           0.185506        0.8145     0.81449
   40          H           0.200712        0.7993     0.79929
   41          H           0.175849        0.8242     0.82415
   42          H           0.186685        0.8133     0.81331
   43          H           0.185816        0.8142     0.81418
   44          H           0.176760        0.8232     0.82324
 DIPOLE           X         Y         Z       TOTAL
 POINT-CHG.    -0.337     3.245     0.656     3.328
 HYBRID         0.310     0.113     0.374     0.499
 SUM           -0.027     3.358     1.031     3.513


          ATOMIC ORBITAL ELECTRON POPULATIONS

     Atom    s        px        py        pz      x^2-y^2     xz        z^2       yz        xy
    1  N   1.77143   1.30925   1.45045   1.10242
    2  N   1.52340   1.12042   1.60837   1.18145
    3  N   1.50939   1.25000   1.60386   1.11179
    4  N   1.66889   1.71826   1.27183   1.27224
    5  N   1.66979   1.34383   1.27667   1.62836
    6  C   1.05369   1.03328   1.55212   1.00257
    7  C   1.05329   0.84387   0.77051   0.81575
    8  C   1.10852   0.87408   0.80784   0.82809
    9  C   1.06505   0.78625   0.91449   0.98890
   10  C   1.08081   0.89025   0.64902   0.82030
   11  C   1.08580   1.00252   1.00516   0.98722
   12  C   1.08190   1.01595   1.10303   1.06396
   13  C   1.09203   0.99828   0.88250   1.03198
   14  C   1.10049   1.10600   1.19740   1.04555
   15  C   1.09327   0.98158   0.88968   1.03770
   16  C   1.08305   1.03078   1.07508   1.06785
   17  C   1.08461   1.03028   1.04242   1.00384
   18  C   1.09213   0.95408   1.05228   0.95276
   19  C   1.10613   1.10775   1.03639   1.13117
   20  C   1.09166   0.99394   1.02939   0.93994
   21  C   1.08435   0.99148   1.06336   1.01871
   22  O   1.88042   1.90009   1.55921   1.29947
   23  O   1.89371   1.80489   1.83156   1.48623
   24  O   1.89357   1.78136   1.80011   1.54842
   25  O   1.89267   1.86493   1.50763   1.75607
   26  O   1.89261   1.86006   1.53088   1.73543
   27  S   1.89317   0.91915   1.86549   1.04523   0.03048   0.00857   0.04405   0.03225   0.01684
   28  S   1.15992   0.68928   0.62633   0.59528   0.10175   0.09062   0.15329   0.07842   0.03474
   29  S   1.16605   0.69249   0.59586   0.63211   0.13597   0.10570   0.05108   0.11090   0.06188
   30  H   0.62193
   31  H   0.65061
   32  H   0.64489
   33  H   0.67998
   34  H   0.67851
   35  H   0.67845
   36  H   0.67658
   37  H   0.81410
   38  H   0.81386
   39  H   0.81449
   40  H   0.79929
   41  H   0.82415
   42  H   0.81331
   43  H   0.81418
   44  H   0.82324

 **********************
 *                    *
 * JOB ENDED NORMALLY *
 *                    *
 **********************



 TOTAL JOB TIME:             8.62 SECONDS

 == MOPAC DONE ==
