 *******************************************************************************
 **                                                                           **
 **                              MOPAC v23.2.2                                **
 **                                                                           **
 *******************************************************************************
 **          Digital Object Identifier (DOI): 10.5281/zenodo.6511958          **
 **    Visit the DOI location for information on how to cite this program.    **
 *******************************************************************************

                              PM7 CALCULATION RESULTS

 *******************************************************************************
 *  CALCULATION DONE: (MAX THREADS = 24)             Wed Mar 18 14:16:08 2026  *
 *  PM7        - The PM7 Hamiltonian to be used
 *
 *
 *
 *                 CHARGE ON SYSTEM = 0
 *
 *
 *
 *  EPS=78.4   - USE ANDREAS KLAMT'S COSMO IMPLICIT SOLVATION MODEL
 *  T=         - A TIME OF 172800.0 SECONDS REQUESTED
 *  DUMP=N     - RESTART FILE WRITTEN EVERY 7200.0 SECONDS REQUESTED
 *******************************************************************************
PM7 CHARGE=0 EPS=78.4


   ATOM   CHEMICAL          X               Y               Z
  NUMBER   SYMBOL      (ANGSTROMS)     (ANGSTROMS)     (ANGSTROMS)

     1       N         -1.06290000  *   0.96490000  *   1.12840000  *
     2       N         -1.96480000  *  -0.88650000  *  -0.09670000  *
     3       N          0.23160000  *   2.52190000  *   2.24850000  *
     4       N         -8.35350000  *   0.07440000  *   0.91020000  *
     5       N          8.10430000  *  -0.12500000  *  -2.03780000  *
     6       C          1.23850000  *   0.58430000  *   1.20990000  *
     7       C          0.16760000  *   1.37910000  *   1.54940000  *
     8       C         -0.96540000  *  -0.16630000  *   0.46690000  *
     9       C         -3.32630000  *  -0.56070000  *  -0.24110000  *
    10       C          2.63180000  *   0.76370000  *   1.55620000  *
    11       C          3.70660000  *   0.21210000  *   0.68910000  *
    12       C         -4.20070000  *  -1.55510000  *  -0.71910000  *
    13       C         -5.57180000  *  -1.31740000  *  -0.86060000  *
    14       C         -6.08810000  *  -0.07180000  *  -0.50990000  *
    15       C         -5.24620000  *   0.93480000  *  -0.03930000  *
    16       C         -3.87690000  *   0.68190000  *   0.10080000  *
    17       C          3.68220000  *   0.38860000  *  -0.70190000  *
    18       C          4.71810000  *  -0.12380000  *  -1.48630000  *
    19       C          5.78400000  *  -0.79140000  *  -0.87290000  *
    20       C          5.82120000  *  -0.96230000  *   0.51400000  *
    21       C          4.78480000  *  -0.44830000  *   1.29590000  *
    22       O          3.00180000  *   1.37710000  *   2.55870000  *
    23       O         -7.99170000  *   1.63700000  *  -1.05440000  *
    24       O         -8.42540000  *  -0.83370000  *  -1.41180000  *
    25       O          6.53980000  *  -1.76020000  *  -3.18030000  *
    26       O          7.82020000  *  -2.42160000  *  -1.09650000  *
    27       S          0.65070000  *  -0.78000000  *   0.35590000  *
    28       S         -7.82140000  *   0.25470000  *  -0.67770000  *
    29       S          7.08660000  *  -1.45530000  *  -1.88030000  *
    30       H         -1.69740000  *  -1.75630000  *  -0.53950000  *
    31       H          1.04110000  *   2.68930000  *   2.84560000  *
    32       H         -0.63530000  *   2.86420000  *   2.65000000  *
    33       H         -8.99090000  *  -0.72240000  *   0.95590000  *
    34       H         -7.59250000  *  -0.00600000  *   1.58370000  *
    35       H          7.70360000  *   0.74300000  *  -1.68500000  *
    36       H          9.00130000  *  -0.33810000  *  -1.59740000  *
    37       H         -3.81790000  *  -2.53720000  *  -0.98920000  *
    38       H         -6.21810000  *  -2.10480000  *  -1.24240000  *
    39       H         -5.63940000  *   1.91720000  *   0.21590000  *
    40       H         -3.24920000  *   1.48980000  *   0.46760000  *
    41       H          2.87030000  *   0.92960000  *  -1.18390000  *
    42       H          4.69000000  *  -0.00000000  *  -2.56810000  *
    43       H          6.64490000  *  -1.49020000  *   0.99130000  *
    44       H          4.81500000  *  -0.56680000  *   2.37810000  *



          CARTESIAN COORDINATES 

    NO.       ATOM           X           Y           Z

     1         N         -1.0629      0.9649      1.1284
     2         N         -1.9648     -0.8865     -0.0967
     3         N          0.2316      2.5219      2.2485
     4         N         -8.3535      0.0744      0.9102
     5         N          8.1043     -0.1250     -2.0378
     6         C          1.2385      0.5843      1.2099
     7         C          0.1676      1.3791      1.5494
     8         C         -0.9654     -0.1663      0.4669
     9         C         -3.3263     -0.5607     -0.2411
    10         C          2.6318      0.7637      1.5562
    11         C          3.7066      0.2121      0.6891
    12         C         -4.2007     -1.5551     -0.7191
    13         C         -5.5718     -1.3174     -0.8606
    14         C         -6.0881     -0.0718     -0.5099
    15         C         -5.2462      0.9348     -0.0393
    16         C         -3.8769      0.6819      0.1008
    17         C          3.6822      0.3886     -0.7019
    18         C          4.7181     -0.1238     -1.4863
    19         C          5.7840     -0.7914     -0.8729
    20         C          5.8212     -0.9623      0.5140
    21         C          4.7848     -0.4483      1.2959
    22         O          3.0018      1.3771      2.5587
    23         O         -7.9917      1.6370     -1.0544
    24         O         -8.4254     -0.8337     -1.4118
    25         O          6.5398     -1.7602     -3.1803
    26         O          7.8202     -2.4216     -1.0965
    27         S          0.6507     -0.7800      0.3559
    28         S         -7.8214      0.2547     -0.6777
    29         S          7.0866     -1.4553     -1.8803
    30         H         -1.6974     -1.7563     -0.5395
    31         H          1.0411      2.6893      2.8456
    32         H         -0.6353      2.8642      2.6500
    33         H         -8.9909     -0.7224      0.9559
    34         H         -7.5925     -0.0060      1.5837
    35         H          7.7036      0.7430     -1.6850
    36         H          9.0013     -0.3381     -1.5974
    37         H         -3.8179     -2.5372     -0.9892
    38         H         -6.2181     -2.1048     -1.2424
    39         H         -5.6394      1.9172      0.2159
    40         H         -3.2492      1.4898      0.4676
    41         H          2.8703      0.9296     -1.1839
    42         H          4.6900     -0.0000     -2.5681
    43         H          6.6449     -1.4902      0.9913
    44         H          4.8150     -0.5668      2.3781

 General Reference for PM7:
 "Optimization of Parameters for Semiempirical Methods VI: More Modifications to the 
 NDDO Approximations and Re-optimization of Parameters", J. J. P. Stewart, J. Mol. Mod., 1:32, 19 (2013)
 https://link.springer.com/article/10.1007/s00894-012-1667-x

           Empirical Formula: C16 H15 N5 O5 S3  =    44 atoms



      MOLECULAR POINT GROUP   :   C1  


      RHF CALCULATION, NO. OF DOUBLY OCCUPIED LEVELS = 76


          Geometry optimization using L-BFGS
 CYCLE:     1 TIME:   0.129 TIME LEFT:  2.00D  GRAD.:   163.902 HEAT: -138.0559
 CYCLE:     2 TIME:   0.035 TIME LEFT:  2.00D  GRAD.:   161.327 HEAT: -138.4849
 CYCLE:     3 TIME:   0.043 TIME LEFT:  2.00D  GRAD.:    60.388 HEAT: -148.5333
 CYCLE:     4 TIME:   0.043 TIME LEFT:  2.00D  GRAD.:   161.426 HEAT: -138.4851
 CYCLE:     5 TIME:   0.043 TIME LEFT:  2.00D  GRAD.:    60.463 HEAT: -148.5317
 CYCLE:     6 TIME:   0.035 TIME LEFT:  2.00D  GRAD.:    44.180 HEAT: -150.0425
 CYCLE:     7 TIME:   0.035 TIME LEFT:  2.00D  GRAD.:    37.208 HEAT: -151.1080
 CYCLE:     8 TIME:   0.039 TIME LEFT:  2.00D  GRAD.:    48.278 HEAT: -152.1486
 CYCLE:     9 TIME:   0.035 TIME LEFT:  2.00D  GRAD.:    46.222 HEAT: -153.2663
 CYCLE:    10 TIME:   0.035 TIME LEFT:  2.00D  GRAD.:    21.051 HEAT: -153.7317
 CYCLE:    11 TIME:   0.035 TIME LEFT:  2.00D  GRAD.:    16.178 HEAT: -153.8647
 CYCLE:    12 TIME:   0.039 TIME LEFT:  2.00D  GRAD.:    16.741 HEAT: -154.2773
 CYCLE:    13 TIME:   0.039 TIME LEFT:  2.00D  GRAD.:    26.938 HEAT: -154.6340
 CYCLE:    14 TIME:   0.035 TIME LEFT:  2.00D  GRAD.:    19.364 HEAT: -154.9042
 CYCLE:    15 TIME:   0.035 TIME LEFT:  2.00D  GRAD.:    12.165 HEAT: -155.1810
 CYCLE:    16 TIME:   0.039 TIME LEFT:  2.00D  GRAD.:    11.770 HEAT: -155.3218
 CYCLE:    17 TIME:   0.035 TIME LEFT:  2.00D  GRAD.:    15.467 HEAT: -155.5104
 CYCLE:    18 TIME:   0.039 TIME LEFT:  2.00D  GRAD.:    10.484 HEAT: -155.7145
 CYCLE:    19 TIME:   0.035 TIME LEFT:  2.00D  GRAD.:    10.295 HEAT: -155.8282
 CYCLE:    20 TIME:   0.035 TIME LEFT:  2.00D  GRAD.:     9.001 HEAT: -155.9439
 CYCLE:    21 TIME:   0.035 TIME LEFT:  2.00D  GRAD.:     9.480 HEAT: -155.8723
 CYCLE:    22 TIME:   0.039 TIME LEFT:  2.00D  GRAD.:    21.946 HEAT: -156.0027
 CYCLE:    23 TIME:   0.035 TIME LEFT:  2.00D  GRAD.:     8.931 HEAT: -156.1392
 CYCLE:    24 TIME:   0.031 TIME LEFT:  2.00D  GRAD.:     7.290 HEAT: -156.1653
 CYCLE:    25 TIME:   0.035 TIME LEFT:  2.00D  GRAD.:     8.352 HEAT: -156.1678
 CYCLE:    26 TIME:   0.039 TIME LEFT:  2.00D  GRAD.:    22.002 HEAT: -156.1243
 CYCLE:    27 TIME:   0.035 TIME LEFT:  2.00D  GRAD.:     7.005 HEAT: -156.2242
 CYCLE:    28 TIME:   0.035 TIME LEFT:  2.00D  GRAD.:     5.128 HEAT: -156.2862
 CYCLE:    29 TIME:   0.035 TIME LEFT:  2.00D  GRAD.:     6.060 HEAT: -156.4024
 CYCLE:    30 TIME:   0.035 TIME LEFT:  2.00D  GRAD.:    14.962 HEAT: -156.4144
 CYCLE:    31 TIME:   0.035 TIME LEFT:  2.00D  GRAD.:     6.354 HEAT: -156.4939
 CYCLE:    32 TIME:   0.035 TIME LEFT:  2.00D  GRAD.:     4.822 HEAT: -156.4763
 CYCLE:    33 TIME:   0.035 TIME LEFT:  2.00D  GRAD.:     6.219 HEAT: -156.4874
 CYCLE:    34 TIME:   0.035 TIME LEFT:  2.00D  GRAD.:     7.760 HEAT: -156.5030
 CYCLE:    35 TIME:   0.035 TIME LEFT:  2.00D  GRAD.:    10.392 HEAT: -156.6064
 CYCLE:    36 TIME:   0.035 TIME LEFT:  2.00D  GRAD.:     7.213 HEAT: -156.6696
 CYCLE:    37 TIME:   0.035 TIME LEFT:  2.00D  GRAD.:     6.017 HEAT: -156.7037
 CYCLE:    38 TIME:   0.035 TIME LEFT:  2.00D  GRAD.:     6.887 HEAT: -156.6651
 CYCLE:    39 TIME:   0.035 TIME LEFT:  2.00D  GRAD.:     9.501 HEAT: -156.9118
 CYCLE:    40 TIME:   0.039 TIME LEFT:  2.00D  GRAD.:     7.145 HEAT: -156.9585
 CYCLE:    41 TIME:   0.035 TIME LEFT:  2.00D  GRAD.:     5.113 HEAT: -156.9010
 CYCLE:    42 TIME:   0.035 TIME LEFT:  2.00D  GRAD.:     6.991 HEAT: -156.8873
 CYCLE:    43 TIME:   0.035 TIME LEFT:  2.00D  GRAD.:     4.318 HEAT: -156.8932
 CYCLE:    44 TIME:   0.035 TIME LEFT:  2.00D  GRAD.:     4.074 HEAT: -156.9058
 CYCLE:    45 TIME:   0.035 TIME LEFT:  2.00D  GRAD.:     5.295 HEAT: -156.9585
 CYCLE:    46 TIME:   0.035 TIME LEFT:  2.00D  GRAD.:     8.293 HEAT: -156.9318
 CYCLE:    47 TIME:   0.039 TIME LEFT:  2.00D  GRAD.:     9.310 HEAT: -156.9514
 CYCLE:    48 TIME:   0.035 TIME LEFT:  2.00D  GRAD.:     7.712 HEAT: -157.0485
 CYCLE:    49 TIME:   0.039 TIME LEFT:  2.00D  GRAD.:     7.482 HEAT: -157.1168
 CYCLE:    50 TIME:   0.039 TIME LEFT:  2.00D  GRAD.:     8.626 HEAT: -157.1445
 CYCLE:    51 TIME:   0.039 TIME LEFT:  2.00D  GRAD.:     7.838 HEAT: -157.1301
 CYCLE:    52 TIME:   0.031 TIME LEFT:  2.00D  GRAD.:     5.605 HEAT: -157.2180
 CYCLE:    53 TIME:   0.035 TIME LEFT:  2.00D  GRAD.:     6.458 HEAT: -157.2290
 CYCLE:    54 TIME:   0.039 TIME LEFT:  2.00D  GRAD.:     9.141 HEAT: -157.3306
 CYCLE:    55 TIME:   0.039 TIME LEFT:  2.00D  GRAD.:     9.738 HEAT: -157.3512
 CYCLE:    56 TIME:   0.035 TIME LEFT:  2.00D  GRAD.:     8.123 HEAT: -157.5025
 CYCLE:    57 TIME:   0.035 TIME LEFT:  2.00D  GRAD.:     7.691 HEAT: -157.5073
 CYCLE:    58 TIME:   0.039 TIME LEFT:  2.00D  GRAD.:     9.844 HEAT: -157.3270
 CYCLE:    59 TIME:   0.035 TIME LEFT:  2.00D  GRAD.:     9.090 HEAT: -157.3219
 CYCLE:    60 TIME:   0.039 TIME LEFT:  2.00D  GRAD.:    10.261 HEAT: -157.3761
 CYCLE:    61 TIME:   0.039 TIME LEFT:  2.00D  GRAD.:    10.674 HEAT: -157.6329
 CYCLE:    62 TIME:   0.051 TIME LEFT:  2.00D  GRAD.:     8.906 HEAT: -157.6877
 CYCLE:    63 TIME:   0.059 TIME LEFT:  2.00D  GRAD.:    13.854 HEAT: -157.7594
 CYCLE:    64 TIME:   0.047 TIME LEFT:  2.00D  GRAD.:     8.749 HEAT: -157.7299
 CYCLE:    65 TIME:   0.035 TIME LEFT:  2.00D  GRAD.:    10.025 HEAT: -157.8793
 CYCLE:    66 TIME:   0.039 TIME LEFT:  2.00D  GRAD.:     9.752 HEAT: -157.8869
 CYCLE:    67 TIME:   0.039 TIME LEFT:  2.00D  GRAD.:    11.455 HEAT: -158.0384
 CYCLE:    68 TIME:   0.039 TIME LEFT:  2.00D  GRAD.:     8.747 HEAT: -158.1291
 CYCLE:    69 TIME:   0.035 TIME LEFT:  2.00D  GRAD.:    10.489 HEAT: -158.1895
 CYCLE:    70 TIME:   0.035 TIME LEFT:  2.00D  GRAD.:    10.988 HEAT: -158.2756
 CYCLE:    71 TIME:   0.039 TIME LEFT:  2.00D  GRAD.:    11.497 HEAT: -158.2545
 CYCLE:    72 TIME:   0.035 TIME LEFT:  2.00D  GRAD.:     8.988 HEAT: -158.4870
 CYCLE:    73 TIME:   0.039 TIME LEFT:  2.00D  GRAD.:     9.767 HEAT: -158.5180
 CYCLE:    74 TIME:   0.039 TIME LEFT:  2.00D  GRAD.:    10.785 HEAT: -158.6328
 CYCLE:    75 TIME:   0.035 TIME LEFT:  2.00D  GRAD.:    12.372 HEAT: -158.6088
 CYCLE:    76 TIME:   0.043 TIME LEFT:  2.00D  GRAD.:    16.082 HEAT: -158.2925
 CYCLE:    77 TIME:   0.039 TIME LEFT:  2.00D  GRAD.:    20.163 HEAT: -158.4532
 CYCLE:    78 TIME:   0.035 TIME LEFT:  2.00D  GRAD.:     7.611 HEAT: -158.5567
 CYCLE:    79 TIME:   0.035 TIME LEFT:  2.00D  GRAD.:     7.842 HEAT: -158.4728
 CYCLE:    80 TIME:   0.039 TIME LEFT:  2.00D  GRAD.:    11.650 HEAT: -158.5535
 CYCLE:    81 TIME:   0.035 TIME LEFT:  2.00D  GRAD.:     9.717 HEAT: -158.6463
 CYCLE:    82 TIME:   0.035 TIME LEFT:  2.00D  GRAD.:     7.586 HEAT: -158.7234
 CYCLE:    83 TIME:   0.039 TIME LEFT:  2.00D  GRAD.:    11.127 HEAT: -158.8557
 CYCLE:    84 TIME:   0.035 TIME LEFT:  2.00D  GRAD.:    16.082 HEAT: -158.9055
 CYCLE:    85 TIME:   0.035 TIME LEFT:  2.00D  GRAD.:     8.110 HEAT: -158.9797
 CYCLE:    86 TIME:   0.039 TIME LEFT:  2.00D  GRAD.:     9.748 HEAT: -159.0545
 CYCLE:    87 TIME:   0.039 TIME LEFT:  2.00D  GRAD.:    18.503 HEAT: -159.0373
 CYCLE:    88 TIME:   0.035 TIME LEFT:  2.00D  GRAD.:    11.124 HEAT: -159.1788
 CYCLE:    89 TIME:   0.039 TIME LEFT:  2.00D  GRAD.:     9.932 HEAT: -159.0903
 CYCLE:    90 TIME:   0.035 TIME LEFT:  2.00D  GRAD.:    12.145 HEAT: -159.1303
 CYCLE:    91 TIME:   0.039 TIME LEFT:  2.00D  GRAD.:    12.357 HEAT: -159.2784
 CYCLE:    92 TIME:   0.039 TIME LEFT:  2.00D  GRAD.:    19.795 HEAT: -159.3190
 CYCLE:    93 TIME:   0.043 TIME LEFT:  2.00D  GRAD.:    10.431 HEAT: -159.4920
 CYCLE:    94 TIME:   0.047 TIME LEFT:  2.00D  GRAD.:    11.399 HEAT: -159.6270
 CYCLE:    95 TIME:   0.047 TIME LEFT:  2.00D  GRAD.:    19.893 HEAT: -159.4649
 CYCLE:    96 TIME:   0.043 TIME LEFT:  2.00D  GRAD.:    16.009 HEAT: -159.7248
 CYCLE:    97 TIME:   0.043 TIME LEFT:  2.00D  GRAD.:    10.769 HEAT: -159.6977
 CYCLE:    98 TIME:   0.039 TIME LEFT:  2.00D  GRAD.:     6.714 HEAT: -159.7890
 CYCLE:    99 TIME:   0.039 TIME LEFT:  2.00D  GRAD.:     9.894 HEAT: -159.9567
 CYCLE:   100 TIME:   0.035 TIME LEFT:  2.00D  GRAD.:    13.390 HEAT: -160.2566
 CYCLE:   101 TIME:   0.039 TIME LEFT:  2.00D  GRAD.:     9.573 HEAT: -160.4516
 CYCLE:   102 TIME:   0.035 TIME LEFT:  2.00D  GRAD.:    11.283 HEAT: -160.5577
 CYCLE:   103 TIME:   0.039 TIME LEFT:  2.00D  GRAD.:    12.363 HEAT: -160.7145
 CYCLE:   104 TIME:   0.035 TIME LEFT:  2.00D  GRAD.:     7.920 HEAT: -160.7347
 CYCLE:   105 TIME:   0.035 TIME LEFT:  2.00D  GRAD.:     7.177 HEAT: -160.8271
 CYCLE:   106 TIME:   0.035 TIME LEFT:  2.00D  GRAD.:     8.517 HEAT: -160.7445
 CYCLE:   107 TIME:   0.039 TIME LEFT:  2.00D  GRAD.:    12.890 HEAT: -161.0373
 CYCLE:   108 TIME:   0.035 TIME LEFT:  2.00D  GRAD.:     6.093 HEAT: -161.0080
 CYCLE:   109 TIME:   0.035 TIME LEFT:  2.00D  GRAD.:     8.598 HEAT: -161.1032
 CYCLE:   110 TIME:   0.035 TIME LEFT:  2.00D  GRAD.:     5.889 HEAT: -161.1751
 CYCLE:   111 TIME:   0.039 TIME LEFT:  2.00D  GRAD.:     6.076 HEAT: -161.2305
 CYCLE:   112 TIME:   0.035 TIME LEFT:  2.00D  GRAD.:     7.528 HEAT: -161.2969
 CYCLE:   113 TIME:   0.039 TIME LEFT:  2.00D  GRAD.:     6.950 HEAT: -161.2457
 CYCLE:   114 TIME:   0.035 TIME LEFT:  2.00D  GRAD.:     6.538 HEAT: -161.3158
 CYCLE:   115 TIME:   0.035 TIME LEFT:  2.00D  GRAD.:     5.287 HEAT: -161.3533
 CYCLE:   116 TIME:   0.035 TIME LEFT:  2.00D  GRAD.:     6.240 HEAT: -161.5728
 CYCLE:   117 TIME:   0.035 TIME LEFT:  2.00D  GRAD.:     8.169 HEAT: -161.5441
 CYCLE:   118 TIME:   0.035 TIME LEFT:  2.00D  GRAD.:     5.649 HEAT: -161.5303
 CYCLE:   119 TIME:   0.039 TIME LEFT:  2.00D  GRAD.:     5.645 HEAT: -161.4781
 CYCLE:   120 TIME:   0.035 TIME LEFT:  2.00D  GRAD.:     8.711 HEAT: -161.5275
 CYCLE:   121 TIME:   0.035 TIME LEFT:  2.00D  GRAD.:     5.038 HEAT: -161.6090
 CYCLE:   122 TIME:   0.035 TIME LEFT:  2.00D  GRAD.:     4.639 HEAT: -161.6842
 CYCLE:   123 TIME:   0.035 TIME LEFT:  2.00D  GRAD.:     5.833 HEAT: -161.6688
 CYCLE:   124 TIME:   0.035 TIME LEFT:  2.00D  GRAD.:     7.126 HEAT: -161.6981
 CYCLE:   125 TIME:   0.039 TIME LEFT:  2.00D  GRAD.:     5.578 HEAT: -161.6884
 CYCLE:   126 TIME:   0.035 TIME LEFT:  2.00D  GRAD.:     5.048 HEAT: -161.6802
 CYCLE:   127 TIME:   0.035 TIME LEFT:  2.00D  GRAD.:     5.349 HEAT: -161.6503
 CYCLE:   128 TIME:   0.035 TIME LEFT:  2.00D  GRAD.:     8.499 HEAT: -161.4822
 CYCLE:   129 TIME:   0.039 TIME LEFT:  2.00D  GRAD.:     5.957 HEAT: -161.4103
 CYCLE:   130 TIME:   0.035 TIME LEFT:  2.00D  GRAD.:     6.049 HEAT: -161.4066
 CYCLE:   131 TIME:   0.035 TIME LEFT:  2.00D  GRAD.:     3.738 HEAT: -161.4854
 CYCLE:   132 TIME:   0.035 TIME LEFT:  2.00D  GRAD.:     3.700 HEAT: -161.3959
 CYCLE:   133 TIME:   0.039 TIME LEFT:  2.00D  GRAD.:     4.602 HEAT: -161.4118
 CYCLE:   134 TIME:   0.035 TIME LEFT:  2.00D  GRAD.:     7.398 HEAT: -161.3985
 CYCLE:   135 TIME:   0.035 TIME LEFT:  2.00D  GRAD.:     3.469 HEAT: -161.4404
 CYCLE:   136 TIME:   0.035 TIME LEFT:  2.00D  GRAD.:     3.265 HEAT: -161.4406
 CYCLE:   137 TIME:   0.035 TIME LEFT:  2.00D  GRAD.:     3.882 HEAT: -161.4737
 CYCLE:   138 TIME:   0.039 TIME LEFT:  2.00D  GRAD.:     7.166 HEAT: -161.4277
 CYCLE:   139 TIME:   0.035 TIME LEFT:  2.00D  GRAD.:     4.435 HEAT: -161.3909
 CYCLE:   140 TIME:   0.035 TIME LEFT:  2.00D  GRAD.:     2.926 HEAT: -161.3827
 CYCLE:   141 TIME:   0.035 TIME LEFT:  2.00D  GRAD.:     3.143 HEAT: -161.4142
 CYCLE:   142 TIME:   0.039 TIME LEFT:  2.00D  GRAD.:     3.793 HEAT: -161.4833
 CYCLE:   143 TIME:   0.035 TIME LEFT:  2.00D  GRAD.:     3.422 HEAT: -161.4953
 CYCLE:   144 TIME:   0.035 TIME LEFT:  2.00D  GRAD.:     2.286 HEAT: -161.4795
 CYCLE:   145 TIME:   0.039 TIME LEFT:  2.00D  GRAD.:     2.394 HEAT: -161.5430
 CYCLE:   146 TIME:   0.035 TIME LEFT:  2.00D  GRAD.:     2.293 HEAT: -161.5179
 CYCLE:   147 TIME:   0.035 TIME LEFT:  2.00D  GRAD.:     2.285 HEAT: -161.5072
 CYCLE:   148 TIME:   0.035 TIME LEFT:  2.00D  GRAD.:     2.080 HEAT: -161.4901
 CYCLE:   149 TIME:   0.043 TIME LEFT:  2.00D  GRAD.:     2.369 HEAT: -161.4853
 CYCLE:   150 TIME:   0.039 TIME LEFT:  2.00D  GRAD.:     3.475 HEAT: -161.4819
 CYCLE:   151 TIME:   0.035 TIME LEFT:  2.00D  GRAD.:     1.853 HEAT: -161.4884
 CYCLE:   152 TIME:   0.035 TIME LEFT:  2.00D  GRAD.:     1.769 HEAT: -161.4870
 CYCLE:   153 TIME:   0.035 TIME LEFT:  2.00D  GRAD.:     1.903 HEAT: -161.4988
 CYCLE:   154 TIME:   0.035 TIME LEFT:  2.00D  GRAD.:     3.713 HEAT: -161.5305


           HEAT OF FORMATION IS ESSENTIALLY STATIONARY


          CURRENT BEST VALUE OF HEAT OF FORMATION =   -161.700207

 PM7 CHARGE=0 EPS=78.4


  N    -1.15838096 +1   0.73526485 +1   1.16254327 +1
  N    -1.94675601 +1  -0.94781420 +1  -0.34955058 +1
  N     0.05310083 +1   2.25800884 +1   2.49334460 +1
  N    -8.22079462 +1   0.20999183 +1   1.20719221 +1
  N     8.15440682 +1  -0.21339602 +1  -2.14066608 +1
  C     1.23039397 +1   0.66297045 +1   1.04669278 +1
  C     0.06809262 +1   1.26298791 +1   1.60250068 +1
  C    -0.97636750 +1  -0.26424248 +1   0.29459127 +1
  C    -3.33146330 +1  -0.64327753 +1  -0.32768702 +1
  C     2.54842981 +1   1.12276267 +1   1.25788205 +1
  C     3.68315995 +1   0.45898776 +1   0.55304629 +1
  C    -4.19798402 +1  -1.67457815 +1  -0.73196215 +1
  C    -5.56461147 +1  -1.44557545 +1  -0.77704230 +1
  C    -6.08172098 +1  -0.19431484 +1  -0.42283037 +1
  C    -5.21625459 +1   0.83120772 +1  -0.04364763 +1
  C    -3.84293269 +1   0.61559436 +1   0.00819604 +1
  C     3.92700742 +1   0.72981934 +1  -0.79037164 +1
  C     5.01640372 +1   0.13081107 +1  -1.42354735 +1
  C     5.85616501 +1  -0.71953050 +1  -0.70297770 +1
  C     5.61049103 +1  -0.97913046 +1   0.64405963 +1
  C     4.51760410 +1  -0.38887071 +1   1.27633359 +1
  O     2.80405640 +1   2.06518132 +1   2.00403566 +1
  O    -8.11512786 +1   1.36431461 +1  -1.05161110 +1
  O    -8.45146079 +1  -1.11623554 +1  -1.00281856 +1
  O     6.71095761 +1  -2.26388027 +1  -2.62292540 +1
  O     8.00892640 +1  -2.18205604 +1  -0.47905366 +1
  S     0.78032515 +1  -0.66552641 +1   0.01336772 +1
  S    -7.79543367 +1   0.06815824 +1  -0.45233315 +1
  S     7.21074084 +1  -1.49101746 +1  -1.48539296 +1
  H    -1.68681070 +1  -1.81008111 +1  -0.86701841 +1
  H     0.93207578 +1   2.66564974 +1   2.80231565 +1
  H    -0.80274702 +1   2.66984165 +1   2.84117867 +1
  H    -8.99532191 +1   0.83562146 +1   1.41075313 +1
  H    -8.37869564 +1  -0.66373019 +1   1.70241743 +1
  H     9.02656064 +1  -0.00722642 +1  -1.65644245 +1
  H     8.35544784 +1  -0.28445908 +1  -3.13730806 +1
  H    -3.79938756 +1  -2.65294381 +1  -1.00829584 +1
  H    -6.22661219 +1  -2.26315882 +1  -1.09661139 +1
  H    -5.59258259 +1   1.83045047 +1   0.21656090 +1
  H    -3.18339948 +1   1.43480012 +1   0.30075879 +1
  H     3.28483479 +1   1.41375830 +1  -1.34659453 +1
  H     5.19166389 +1   0.35077230 +1  -2.48298587 +1
  H     6.26647411 +1  -1.63779351 +1   1.22936616 +1
  H     4.32762781 +1  -0.58142877 +1   2.33291836 +1



 -------------------------------------------------------------------------------
 PM7 CHARGE=0 EPS=78.4




     HERBERTS TEST WAS SATISFIED IN BFGS                      
     SCF FIELD WAS ACHIEVED                                   


                              PM7 CALCULATION
                                                       MOPAC v23.2.2 Linux
                                                       Wed Mar 18 14:16:14 2026




          FINAL HEAT OF FORMATION =       -161.70021 KCAL/MOL =    -676.55367 KJ/MOL
          VAN DER WAALS AREA      =        414.41 SQUARE ANGSTROMS



          DIELECTRIC ENERGY       =         -2.69061 EV
          COSMO AREA              =        414.41 SQUARE ANGSTROMS
          COSMO VOLUME            =        463.41 CUBIC ANGSTROMS

          GRADIENT NORM           =          7.12572          =       1.07424 PER ATOM
          IONIZATION POTENTIAL    =          8.809409 EV
          HOMO LUMO ENERGIES (EV) =         -8.809 -1.284
          NO. OF FILLED LEVELS    =         76
          MOLECULAR WEIGHT        =        453.5050         POINT GROUP:  C1  

          MOLECULAR DIMENSIONS (Angstroms)

            Atom       Atom       Distance
            H    35    H    33    18.30045
            H    38    H    31     7.25823
            H    43    O    23     4.99434


          SCF CALCULATIONS        =        157

          WALL-CLOCK TIME         =      5.887 SECONDS
          COMPUTATION TIME        =          2 MINUTES AND 20.413 SECONDS



       FINAL  POINT  AND  DERIVATIVES

   PARAMETER     ATOM    TYPE            VALUE        GRADIENT
      1          1  N    CARTESIAN X    -1.158381      0.046938  KCAL/ANGSTROM
      2          1  N    CARTESIAN Y     0.735265     -0.818207  KCAL/ANGSTROM
      3          1  N    CARTESIAN Z     1.162543      0.101168  KCAL/ANGSTROM
      4          2  N    CARTESIAN X    -1.946756     -0.361517  KCAL/ANGSTROM
      5          2  N    CARTESIAN Y    -0.947814      0.001187  KCAL/ANGSTROM
      6          2  N    CARTESIAN Z    -0.349551     -0.319351  KCAL/ANGSTROM
      7          3  N    CARTESIAN X     0.053101     -0.387456  KCAL/ANGSTROM
      8          3  N    CARTESIAN Y     2.258009     -0.684841  KCAL/ANGSTROM
      9          3  N    CARTESIAN Z     2.493345      0.007530  KCAL/ANGSTROM
     10          4  N    CARTESIAN X    -8.220795      0.237312  KCAL/ANGSTROM
     11          4  N    CARTESIAN Y     0.209992     -0.020959  KCAL/ANGSTROM
     12          4  N    CARTESIAN Z     1.207192     -0.498783  KCAL/ANGSTROM
     13          5  N    CARTESIAN X     8.154407      0.685495  KCAL/ANGSTROM
     14          5  N    CARTESIAN Y    -0.213396     -0.752747  KCAL/ANGSTROM
     15          5  N    CARTESIAN Z    -2.140666      0.438809  KCAL/ANGSTROM
     16          6  C    CARTESIAN X     1.230394     -0.535099  KCAL/ANGSTROM
     17          6  C    CARTESIAN Y     0.662970     -0.522097  KCAL/ANGSTROM
     18          6  C    CARTESIAN Z     1.046693      0.536296  KCAL/ANGSTROM
     19          7  C    CARTESIAN X     0.068093      0.253988  KCAL/ANGSTROM
     20          7  C    CARTESIAN Y     1.262988      0.702929  KCAL/ANGSTROM
     21          7  C    CARTESIAN Z     1.602501      0.110088  KCAL/ANGSTROM
     22          8  C    CARTESIAN X    -0.976367      0.239718  KCAL/ANGSTROM
     23          8  C    CARTESIAN Y    -0.264242      0.536526  KCAL/ANGSTROM
     24          8  C    CARTESIAN Z     0.294591      0.171443  KCAL/ANGSTROM
     25          9  C    CARTESIAN X    -3.331463     -1.245008  KCAL/ANGSTROM
     26          9  C    CARTESIAN Y    -0.643278     -1.431335  KCAL/ANGSTROM
     27          9  C    CARTESIAN Z    -0.327687     -0.432588  KCAL/ANGSTROM
     28         10  C    CARTESIAN X     2.548430      0.761118  KCAL/ANGSTROM
     29         10  C    CARTESIAN Y     1.122763      0.246103  KCAL/ANGSTROM
     30         10  C    CARTESIAN Z     1.257882      1.027345  KCAL/ANGSTROM
     31         11  C    CARTESIAN X     3.683160      0.484543  KCAL/ANGSTROM
     32         11  C    CARTESIAN Y     0.458988     -0.394587  KCAL/ANGSTROM
     33         11  C    CARTESIAN Z     0.553046     -1.315013  KCAL/ANGSTROM
     34         12  C    CARTESIAN X    -4.197984      0.098334  KCAL/ANGSTROM
     35         12  C    CARTESIAN Y    -1.674578      1.119717  KCAL/ANGSTROM
     36         12  C    CARTESIAN Z    -0.731962      0.483679  KCAL/ANGSTROM
     37         13  C    CARTESIAN X    -5.564611      0.885852  KCAL/ANGSTROM
     38         13  C    CARTESIAN Y    -1.445575     -1.445523  KCAL/ANGSTROM
     39         13  C    CARTESIAN Z    -0.777042     -0.255363  KCAL/ANGSTROM
     40         14  C    CARTESIAN X    -6.081721      0.017742  KCAL/ANGSTROM
     41         14  C    CARTESIAN Y    -0.194315      1.969287  KCAL/ANGSTROM
     42         14  C    CARTESIAN Z    -0.422830      1.052815  KCAL/ANGSTROM
     43         15  C    CARTESIAN X    -5.216255     -0.089712  KCAL/ANGSTROM
     44         15  C    CARTESIAN Y     0.831208     -1.107112  KCAL/ANGSTROM
     45         15  C    CARTESIAN Z    -0.043648     -0.243892  KCAL/ANGSTROM
     46         16  C    CARTESIAN X    -3.842933     -1.109407  KCAL/ANGSTROM
     47         16  C    CARTESIAN Y     0.615594      1.070128  KCAL/ANGSTROM
     48         16  C    CARTESIAN Z     0.008196      0.294947  KCAL/ANGSTROM
     49         17  C    CARTESIAN X     3.927007     -1.449341  KCAL/ANGSTROM
     50         17  C    CARTESIAN Y     0.729819      0.395184  KCAL/ANGSTROM
     51         17  C    CARTESIAN Z    -0.790372      1.160726  KCAL/ANGSTROM
     52         18  C    CARTESIAN X     5.016404      0.655119  KCAL/ANGSTROM
     53         18  C    CARTESIAN Y     0.130811     -0.492481  KCAL/ANGSTROM
     54         18  C    CARTESIAN Z    -1.423547     -1.412223  KCAL/ANGSTROM
     55         19  C    CARTESIAN X     5.856165     -0.224746  KCAL/ANGSTROM
     56         19  C    CARTESIAN Y    -0.719530     -0.074372  KCAL/ANGSTROM
     57         19  C    CARTESIAN Z    -0.702978      1.351302  KCAL/ANGSTROM
     58         20  C    CARTESIAN X     5.610491      0.416200  KCAL/ANGSTROM
     59         20  C    CARTESIAN Y    -0.979130     -0.142247  KCAL/ANGSTROM
     60         20  C    CARTESIAN Z     0.644060     -1.445455  KCAL/ANGSTROM
     61         21  C    CARTESIAN X     4.517604     -0.609430  KCAL/ANGSTROM
     62         21  C    CARTESIAN Y    -0.388871      0.080407  KCAL/ANGSTROM
     63         21  C    CARTESIAN Z     1.276334     -0.089376  KCAL/ANGSTROM
     64         22  O    CARTESIAN X     2.804056     -0.354861  KCAL/ANGSTROM
     65         22  O    CARTESIAN Y     2.065181     -1.062771  KCAL/ANGSTROM
     66         22  O    CARTESIAN Z     2.004036     -1.154941  KCAL/ANGSTROM
     67         23  O    CARTESIAN X    -8.115128     -0.473883  KCAL/ANGSTROM
     68         23  O    CARTESIAN Y     1.364315      0.687030  KCAL/ANGSTROM
     69         23  O    CARTESIAN Z    -1.051611      0.387219  KCAL/ANGSTROM
     70         24  O    CARTESIAN X    -8.451461      0.113678  KCAL/ANGSTROM
     71         24  O    CARTESIAN Y    -1.116236     -0.193856  KCAL/ANGSTROM
     72         24  O    CARTESIAN Z    -1.002819     -0.273204  KCAL/ANGSTROM
     73         25  O    CARTESIAN X     6.710958     -0.498448  KCAL/ANGSTROM
     74         25  O    CARTESIAN Y    -2.263880     -0.378017  KCAL/ANGSTROM
     75         25  O    CARTESIAN Z    -2.622925     -0.191002  KCAL/ANGSTROM
     76         26  O    CARTESIAN X     8.008926     -0.525171  KCAL/ANGSTROM
     77         26  O    CARTESIAN Y    -2.182056      0.573442  KCAL/ANGSTROM
     78         26  O    CARTESIAN Z    -0.479054      0.139853  KCAL/ANGSTROM
     79         27  S    CARTESIAN X     0.780325      0.673895  KCAL/ANGSTROM
     80         27  S    CARTESIAN Y    -0.665526     -0.090799  KCAL/ANGSTROM
     81         27  S    CARTESIAN Z     0.013368      0.312639  KCAL/ANGSTROM
     82         28  S    CARTESIAN X    -7.795434     -0.061271  KCAL/ANGSTROM
     83         28  S    CARTESIAN Y     0.068158     -0.505074  KCAL/ANGSTROM
     84         28  S    CARTESIAN Z    -0.452333      0.226970  KCAL/ANGSTROM
     85         29  S    CARTESIAN X     7.210741      0.419973  KCAL/ANGSTROM
     86         29  S    CARTESIAN Y    -1.491017      0.279446  KCAL/ANGSTROM
     87         29  S    CARTESIAN Z    -1.485393      1.534508  KCAL/ANGSTROM
     88         30  H    CARTESIAN X    -1.686811     -0.174482  KCAL/ANGSTROM
     89         30  H    CARTESIAN Y    -1.810081     -0.002585  KCAL/ANGSTROM
     90         30  H    CARTESIAN Z    -0.867018      0.512998  KCAL/ANGSTROM
     91         31  H    CARTESIAN X     0.932076      0.032797  KCAL/ANGSTROM
     92         31  H    CARTESIAN Y     2.665650     -0.411663  KCAL/ANGSTROM
     93         31  H    CARTESIAN Z     2.802316     -0.336630  KCAL/ANGSTROM
     94         32  H    CARTESIAN X    -0.802747     -0.177135  KCAL/ANGSTROM
     95         32  H    CARTESIAN Y     2.669842      0.644664  KCAL/ANGSTROM
     96         32  H    CARTESIAN Z     2.841179      0.677075  KCAL/ANGSTROM
     97         33  H    CARTESIAN X    -8.995322      0.501821  KCAL/ANGSTROM
     98         33  H    CARTESIAN Y     0.835621     -0.779435  KCAL/ANGSTROM
     99         33  H    CARTESIAN Z     1.410753     -0.376593  KCAL/ANGSTROM
    100         34  H    CARTESIAN X    -8.378696      0.005001  KCAL/ANGSTROM
    101         34  H    CARTESIAN Y    -0.663730      0.618461  KCAL/ANGSTROM
    102         34  H    CARTESIAN Z     1.702417     -0.334939  KCAL/ANGSTROM
    103         35  H    CARTESIAN X     9.026561      0.440512  KCAL/ANGSTROM
    104         35  H    CARTESIAN Y    -0.007226      0.433603  KCAL/ANGSTROM
    105         35  H    CARTESIAN Z    -1.656442     -0.572461  KCAL/ANGSTROM
    106         36  H    CARTESIAN X     8.355448      0.241217  KCAL/ANGSTROM
    107         36  H    CARTESIAN Y    -0.284459     -0.008160  KCAL/ANGSTROM
    108         36  H    CARTESIAN Z    -3.137308     -0.381326  KCAL/ANGSTROM
    109         37  H    CARTESIAN X    -3.799388      0.245262  KCAL/ANGSTROM
    110         37  H    CARTESIAN Y    -2.652944      0.385015  KCAL/ANGSTROM
    111         37  H    CARTESIAN Z    -1.008296      0.059786  KCAL/ANGSTROM
    112         38  H    CARTESIAN X    -6.226612      0.056018  KCAL/ANGSTROM
    113         38  H    CARTESIAN Y    -2.263159      0.236693  KCAL/ANGSTROM
    114         38  H    CARTESIAN Z    -1.096611     -0.186344  KCAL/ANGSTROM
    115         39  H    CARTESIAN X    -5.592583      0.524857  KCAL/ANGSTROM
    116         39  H    CARTESIAN Y     1.830450      0.125809  KCAL/ANGSTROM
    117         39  H    CARTESIAN Z     0.216561     -0.204147  KCAL/ANGSTROM
    118         40  H    CARTESIAN X    -3.183399     -0.400317  KCAL/ANGSTROM
    119         40  H    CARTESIAN Y     1.434800     -0.005148  KCAL/ANGSTROM
    120         40  H    CARTESIAN Z     0.300759     -0.280860  KCAL/ANGSTROM
    121         41  H    CARTESIAN X     3.284835      0.685691  KCAL/ANGSTROM
    122         41  H    CARTESIAN Y     1.413758      0.213444  KCAL/ANGSTROM
    123         41  H    CARTESIAN Z    -1.346595      0.148135  KCAL/ANGSTROM
    124         42  H    CARTESIAN X     5.191664     -0.334702  KCAL/ANGSTROM
    125         42  H    CARTESIAN Y     0.350772      0.234348  KCAL/ANGSTROM
    126         42  H    CARTESIAN Z    -2.482986      0.187103  KCAL/ANGSTROM
    127         43  H    CARTESIAN X     6.266474      0.034113  KCAL/ANGSTROM
    128         43  H    CARTESIAN Y    -1.637794      0.268078  KCAL/ANGSTROM
    129         43  H    CARTESIAN Z     1.229366     -0.054019  KCAL/ANGSTROM
    130         44  H    CARTESIAN X     4.327628      0.254830  KCAL/ANGSTROM
    131         44  H    CARTESIAN Y    -0.581429      0.502500  KCAL/ANGSTROM
    132         44  H    CARTESIAN Z     2.332918     -0.563937  KCAL/ANGSTROM




   ATOM   CHEMICAL          X               Y               Z
  NUMBER   SYMBOL      (ANGSTROMS)     (ANGSTROMS)     (ANGSTROMS)

     1       N         -1.15838096  *   0.73526485  *   1.16254327  *
     2       N         -1.94675601  *  -0.94781420  *  -0.34955058  *
     3       N          0.05310083  *   2.25800884  *   2.49334460  *
     4       N         -8.22079462  *   0.20999183  *   1.20719221  *
     5       N          8.15440682  *  -0.21339602  *  -2.14066608  *
     6       C          1.23039397  *   0.66297045  *   1.04669278  *
     7       C          0.06809262  *   1.26298791  *   1.60250068  *
     8       C         -0.97636750  *  -0.26424248  *   0.29459127  *
     9       C         -3.33146330  *  -0.64327753  *  -0.32768702  *
    10       C          2.54842981  *   1.12276267  *   1.25788205  *
    11       C          3.68315995  *   0.45898776  *   0.55304629  *
    12       C         -4.19798402  *  -1.67457815  *  -0.73196215  *
    13       C         -5.56461147  *  -1.44557545  *  -0.77704230  *
    14       C         -6.08172098  *  -0.19431484  *  -0.42283037  *
    15       C         -5.21625459  *   0.83120772  *  -0.04364763  *
    16       C         -3.84293269  *   0.61559436  *   0.00819604  *
    17       C          3.92700742  *   0.72981934  *  -0.79037164  *
    18       C          5.01640372  *   0.13081107  *  -1.42354735  *
    19       C          5.85616501  *  -0.71953050  *  -0.70297770  *
    20       C          5.61049103  *  -0.97913046  *   0.64405963  *
    21       C          4.51760410  *  -0.38887071  *   1.27633359  *
    22       O          2.80405640  *   2.06518132  *   2.00403566  *
    23       O         -8.11512786  *   1.36431461  *  -1.05161110  *
    24       O         -8.45146079  *  -1.11623554  *  -1.00281856  *
    25       O          6.71095761  *  -2.26388027  *  -2.62292540  *
    26       O          8.00892640  *  -2.18205604  *  -0.47905366  *
    27       S          0.78032515  *  -0.66552641  *   0.01336772  *
    28       S         -7.79543367  *   0.06815824  *  -0.45233315  *
    29       S          7.21074084  *  -1.49101746  *  -1.48539296  *
    30       H         -1.68681070  *  -1.81008111  *  -0.86701841  *
    31       H          0.93207578  *   2.66564974  *   2.80231565  *
    32       H         -0.80274702  *   2.66984165  *   2.84117867  *
    33       H         -8.99532191  *   0.83562146  *   1.41075313  *
    34       H         -8.37869564  *  -0.66373019  *   1.70241743  *
    35       H          9.02656064  *  -0.00722642  *  -1.65644245  *
    36       H          8.35544784  *  -0.28445908  *  -3.13730806  *
    37       H         -3.79938756  *  -2.65294381  *  -1.00829584  *
    38       H         -6.22661219  *  -2.26315882  *  -1.09661139  *
    39       H         -5.59258259  *   1.83045047  *   0.21656090  *
    40       H         -3.18339948  *   1.43480012  *   0.30075879  *
    41       H          3.28483479  *   1.41375830  *  -1.34659453  *
    42       H          5.19166389  *   0.35077230  *  -2.48298587  *
    43       H          6.26647411  *  -1.63779351  *   1.22936616  *
    44       H          4.32762781  *  -0.58142877  *   2.33291836  *

                             CARTESIAN COORDINATES

   1    N       -1.158380955     0.735264849     1.162543269
   2    N       -1.946756012    -0.947814203    -0.349550576
   3    N        0.053100829     2.258008838     2.493344596
   4    N       -8.220794622     0.209991831     1.207192205
   5    N        8.154406819    -0.213396017    -2.140666081
   6    C        1.230393971     0.662970451     1.046692780
   7    C        0.068092621     1.262987905     1.602500681
   8    C       -0.976367496    -0.264242480     0.294591272
   9    C       -3.331463299    -0.643277534    -0.327687016
  10    C        2.548429810     1.122762668     1.257882054
  11    C        3.683159951     0.458987761     0.553046286
  12    C       -4.197984017    -1.674578148    -0.731962150
  13    C       -5.564611474    -1.445575452    -0.777042304
  14    C       -6.081720980    -0.194314835    -0.422830374
  15    C       -5.216254587     0.831207718    -0.043647633
  16    C       -3.842932685     0.615594360     0.008196042
  17    C        3.927007423     0.729819342    -0.790371636
  18    C        5.016403716     0.130811070    -1.423547354
  19    C        5.856165005    -0.719530497    -0.702977699
  20    C        5.610491026    -0.979130463     0.644059632
  21    C        4.517604097    -0.388870705     1.276333591
  22    O        2.804056395     2.065181322     2.004035655
  23    O       -8.115127855     1.364314614    -1.051611105
  24    O       -8.451460794    -1.116235540    -1.002818558
  25    O        6.710957610    -2.263880272    -2.622925400
  26    O        8.008926399    -2.182056041    -0.479053659
  27    S        0.780325151    -0.665526411     0.013367716
  28    S       -7.795433668     0.068158242    -0.452333152
  29    S        7.210740835    -1.491017462    -1.485392958
  30    H       -1.686810697    -1.810081110    -0.867018409
  31    H        0.932075780     2.665649739     2.802315651
  32    H       -0.802747024     2.669841652     2.841178668
  33    H       -8.995321906     0.835621464     1.410753129
  34    H       -8.378695637    -0.663730188     1.702417426
  35    H        9.026560644    -0.007226417    -1.656442446
  36    H        8.355447845    -0.284459079    -3.137308056
  37    H       -3.799387557    -2.652943805    -1.008295838
  38    H       -6.226612193    -2.263158824    -1.096611390
  39    H       -5.592582591     1.830450466     0.216560896
  40    H       -3.183399482     1.434800125     0.300758787
  41    H        3.284834787     1.413758302    -1.346594528
  42    H        5.191663889     0.350772300    -2.482985870
  43    H        6.266474114    -1.637793509     1.229366164
  44    H        4.327627812    -0.581428772     2.332918363


           Empirical Formula: C16 H15 N5 O5 S3  =    44 atoms



      MOLECULAR POINT GROUP   :   C1  


                  EIGENVALUES  
 -38.36347 -37.78488 -35.84963 -35.84324 -35.80185 -31.49157 -31.06328 -30.68699
 -29.39879 -29.30789 -28.37888 -27.77154 -27.70541 -26.75105 -26.55682 -26.46069
 -26.16732 -24.71306 -23.64534 -22.53414 -22.20375 -21.71347 -21.41833 -20.47700
 -19.82802 -19.79152 -19.52117 -18.40712 -17.92400 -17.49937 -17.12009 -16.83351
 -16.75243 -16.53010 -16.46801 -16.30173 -16.10641 -15.96486 -15.79675 -15.71814
 -15.42402 -15.27422 -15.16412 -14.80439 -14.78923 -14.73920 -14.57295 -14.53926
 -14.40311 -14.00052 -13.90832 -13.69591 -13.63595 -13.12704 -12.86432 -12.78896
 -12.63304 -12.50162 -12.43113 -12.34481 -12.28383 -12.22839 -12.16978 -11.83834
 -11.81918 -11.30639 -11.11396 -10.85118 -10.80341 -10.73936 -10.71473 -10.56830
 -10.39523 -10.32652  -9.61347  -8.80941  -1.28399  -0.94505  -0.83590  -0.40062
  -0.39683  -0.25863  -0.21645   0.23502   0.25284   0.28887   0.60654   0.68424
   0.75793   0.80173   1.33375   1.40134   1.69232   1.79775   1.82532   2.17412
   2.31150   2.43083   2.58801   2.62330   2.74797   2.81417   2.91089   3.05618
   3.49516   3.61233   3.74037   3.83419   4.01153   4.08034   4.19235   4.24060
   4.25680   4.37039   4.38702   4.42452   4.44187   4.46762   4.51082   4.52695
   4.61283   4.65014   4.73177   4.75926   4.82821   5.24225   5.27109   5.32056
   5.38881   5.45055   5.51212   5.66584   5.68329   5.72459   5.81911   5.82841
   5.88234   5.90740   5.93651   5.98682   6.08880   6.19864   6.26433   6.67175
   6.67955   6.73636


              NET ATOMIC CHARGES AND DIPOLE CONTRIBUTIONS

  ATOM NO.   TYPE          CHARGE      No. of ELECS.   s-Pop       p-Pop       d-Pop       
    1          N          -0.639094        5.6391     1.77238     3.86671
    2          N          -0.434730        5.4347     1.52454     3.91019
    3          N          -0.477240        5.4772     1.51024     3.96700
    4          N          -0.927769        5.9278     1.66621     4.26156
    5          N          -0.918920        5.9189     1.66638     4.25254
    6          C          -0.641962        4.6420     1.05351     3.58845
    7          C           0.517885        3.4821     1.05382     2.42829
    8          C           0.384438        3.6156     1.10852     2.50704
    9          C           0.244135        3.7559     1.06512     2.69075
   10          C           0.559200        3.4408     1.08164     2.35916
   11          C          -0.081876        4.0819     1.08508     2.99680
   12          C          -0.261782        4.2618     1.08202     3.17976
   13          C          -0.004424        4.0044     1.09294     2.91149
   14          C          -0.443396        4.4434     1.09923     3.34416
   15          C          -0.002621        4.0026     1.09260     2.91003
   16          C          -0.249746        4.2497     1.08261     3.16714
   17          C          -0.160251        4.1603     1.08432     3.07593
   18          C          -0.053955        4.0540     1.09113     2.96283
   19          C          -0.379546        4.3795     1.10642     3.27312
   20          C          -0.052258        4.0523     1.09267     2.95959
   21          C          -0.157812        4.1578     1.08464     3.07317
   22          O          -0.641430        6.6414     1.88029     4.76114
   23          O          -1.018421        7.0184     1.89380     5.12462
   24          O          -1.030074        7.0301     1.89338     5.13669
   25          O          -1.029575        7.0296     1.89375     5.13582
   26          O          -1.015712        7.0157     1.89237     5.12334
   27          S           0.141806        5.8582     1.89219     3.83266     0.13334
   28          S           2.463865        3.5361     1.16129     1.91449     0.46035
   29          S           2.454766        3.5452     1.16461     1.91682     0.46381
   30          H           0.381353        0.6186     0.61865
   31          H           0.355299        0.6447     0.64470
   32          H           0.350041        0.6500     0.64996
   33          H           0.319486        0.6805     0.68051
   34          H           0.322236        0.6778     0.67776
   35          H           0.323475        0.6765     0.67652
   36          H           0.322157        0.6778     0.67784
   37          H           0.187123        0.8129     0.81288
   38          H           0.188315        0.8117     0.81169
   39          H           0.185941        0.8141     0.81406
   40          H           0.196683        0.8033     0.80332
   41          H           0.174938        0.8251     0.82506
   42          H           0.182750        0.8173     0.81725
   43          H           0.189749        0.8103     0.81025
   44          H           0.176956        0.8230     0.82304
 DIPOLE           X         Y         Z       TOTAL
 POINT-CHG.    -1.703     0.995     2.648     3.302
 HYBRID         0.430     0.032     0.407     0.592
 SUM           -1.273     1.026     3.055     3.465


          ATOMIC ORBITAL ELECTRON POPULATIONS

     Atom    s        px        py        pz      x^2-y^2     xz        z^2       yz        xy
    1  N   1.77238   1.29695   1.26937   1.30039
    2  N   1.52454   1.11236   1.33128   1.46655
    3  N   1.51024   1.25188   1.32801   1.38711
    4  N   1.66621   1.58950   1.35320   1.31886
    5  N   1.66638   1.42669   1.55274   1.27311
    6  C   1.05351   1.03694   1.20981   1.34170
    7  C   1.05382   0.84052   0.80128   0.78650
    8  C   1.10852   0.87167   0.82442   0.81096
    9  C   1.06512   0.78816   0.97604   0.92655
   10  C   1.08164   0.88606   0.75087   0.72224
   11  C   1.08508   1.00365   0.99274   1.00040
   12  C   1.08202   1.00524   1.07780   1.09672
   13  C   1.09294   1.01193   1.00956   0.89000
   14  C   1.09923   1.09230   1.05350   1.19836
   15  C   1.09260   0.97657   1.04937   0.88408
   16  C   1.08261   1.03874   1.04166   1.08674
   17  C   1.08432   1.03530   1.04344   0.99719
   18  C   1.09113   0.95081   0.93643   1.07559
   19  C   1.10642   1.10733   1.11308   1.05271
   20  C   1.09267   0.99857   0.98010   0.98093
   21  C   1.08464   0.98640   0.99965   1.08712
   22  O   1.88029   1.88736   1.40071   1.47307
   23  O   1.89380   1.84889   1.49376   1.78198
   24  O   1.89338   1.78405   1.55652   1.79612
   25  O   1.89375   1.81070   1.73747   1.58766
   26  O   1.89237   1.72937   1.75527   1.63871
   27  S   1.89219   0.90439   1.36057   1.56771   0.04636   0.01639   0.03155   0.02386   0.01517
   28  S   1.16129   0.70057   0.59799   0.61593   0.14085   0.03753   0.10554   0.09072   0.08571
   29  S   1.16461   0.67664   0.61945   0.62073   0.04587   0.12316   0.08868   0.10788   0.09822
   30  H   0.61865
   31  H   0.64470
   32  H   0.64996
   33  H   0.68051
   34  H   0.67776
   35  H   0.67652
   36  H   0.67784
   37  H   0.81288
   38  H   0.81169
   39  H   0.81406
   40  H   0.80332
   41  H   0.82506
   42  H   0.81725
   43  H   0.81025
   44  H   0.82304

 **********************
 *                    *
 * JOB ENDED NORMALLY *
 *                    *
 **********************



 TOTAL JOB TIME:             5.89 SECONDS

 == MOPAC DONE ==
